/*--------------------------------*- C++ -*----------------------------------*\
  =========                 |
  \\      /  F ield         | OpenFOAM: The Open Source CFD Toolbox
   \\    /   O peration     | Website:  https://openfoam.org
    \\  /    A nd           | Version:  12
     \\/     M anipulation  |
\*---------------------------------------------------------------------------*/
FoamFile
{
    format      ascii;
    class       volScalarField;
    location    "500";
    object      alphat;
}
// * * * * * * * * * * * * * * * * * * * * * * * * * * * * * * * * * * * * * //

dimensions      [1 -1 -1 0 0 0 0];

internalField   nonuniform List<scalar> 
8000
(
1.99644e-19
2.03848e-19
2.05974e-19
2.06936e-19
2.0738e-19
2.07624e-19
2.07791e-19
2.07926e-19
2.08047e-19
2.08159e-19
2.08266e-19
2.08368e-19
2.08467e-19
2.08562e-19
2.08654e-19
2.08744e-19
2.08831e-19
2.08917e-19
2.09e-19
2.09082e-19
2.09162e-19
2.09242e-19
2.0932e-19
2.09398e-19
2.09476e-19
2.09554e-19
2.09632e-19
2.09712e-19
2.09794e-19
2.09878e-19
2.09967e-19
2.1006e-19
2.10159e-19
2.10267e-19
2.10385e-19
2.10515e-19
2.1066e-19
2.10821e-19
2.10998e-19
2.11205e-19
1.99468e-19
2.03836e-19
2.05998e-19
2.06959e-19
2.07386e-19
2.07617e-19
2.07777e-19
2.07908e-19
2.08026e-19
2.08136e-19
2.08242e-19
2.08343e-19
2.0844e-19
2.08534e-19
2.08625e-19
2.08714e-19
2.088e-19
2.08885e-19
2.08967e-19
2.09049e-19
2.09128e-19
2.09207e-19
2.09284e-19
2.0936e-19
2.09436e-19
2.09512e-19
2.09587e-19
2.09663e-19
2.0974e-19
2.09819e-19
2.09901e-19
2.09987e-19
2.1008e-19
2.10182e-19
2.10297e-19
2.10428e-19
2.10581e-19
2.10757e-19
2.10957e-19
2.112e-19
1.99403e-19
2.03672e-19
2.05871e-19
2.06874e-19
2.07316e-19
2.07547e-19
2.07704e-19
2.07832e-19
2.07948e-19
2.08056e-19
2.08159e-19
2.08258e-19
2.08353e-19
2.08446e-19
2.08536e-19
2.08623e-19
2.08709e-19
2.08792e-19
2.08874e-19
2.08954e-19
2.09032e-19
2.09108e-19
2.09184e-19
2.09257e-19
2.09329e-19
2.09399e-19
2.09468e-19
2.09535e-19
2.09602e-19
2.09668e-19
2.09737e-19
2.09809e-19
2.09888e-19
2.09981e-19
2.10093e-19
2.10232e-19
2.10407e-19
2.1062e-19
2.1087e-19
2.11178e-19
1.99309e-19
2.03416e-19
2.05629e-19
2.06687e-19
2.07162e-19
2.07404e-19
2.07561e-19
2.07687e-19
2.078e-19
2.07905e-19
2.08005e-19
2.08102e-19
2.08196e-19
2.08287e-19
2.08375e-19
2.08461e-19
2.08546e-19
2.08628e-19
2.08708e-19
2.08787e-19
2.08864e-19
2.08938e-19
2.09011e-19
2.0908e-19
2.09147e-19
2.0921e-19
2.09269e-19
2.09325e-19
2.09378e-19
2.0943e-19
2.09481e-19
2.09537e-19
2.09602e-19
2.09686e-19
2.098e-19
2.09955e-19
2.10163e-19
2.10431e-19
2.10751e-19
2.11147e-19
1.99211e-19
2.03132e-19
2.05333e-19
2.06436e-19
2.06943e-19
2.07197e-19
2.07356e-19
2.07479e-19
2.07588e-19
2.07689e-19
2.07786e-19
2.0788e-19
2.07971e-19
2.0806e-19
2.08147e-19
2.08232e-19
2.08315e-19
2.08396e-19
2.08476e-19
2.08554e-19
2.08629e-19
2.08702e-19
2.08771e-19
2.08837e-19
2.08898e-19
2.08954e-19
2.09004e-19
2.09049e-19
2.09089e-19
2.09125e-19
2.09161e-19
2.09202e-19
2.09257e-19
2.09337e-19
2.09459e-19
2.09636e-19
2.09887e-19
2.10217e-19
2.10617e-19
2.11112e-19
1.99112e-19
2.02838e-19
2.05008e-19
2.06144e-19
2.06679e-19
2.06945e-19
2.07104e-19
2.07222e-19
2.07326e-19
2.07422e-19
2.07514e-19
2.07604e-19
2.07692e-19
2.07778e-19
2.07863e-19
2.07946e-19
2.08028e-19
2.08109e-19
2.08187e-19
2.08264e-19
2.08339e-19
2.0841e-19
2.08477e-19
2.0854e-19
2.08597e-19
2.08647e-19
2.0869e-19
2.08726e-19
2.08755e-19
2.0878e-19
2.08805e-19
2.08837e-19
2.08886e-19
2.08968e-19
2.09102e-19
2.09307e-19
2.09603e-19
2.09998e-19
2.10479e-19
2.11076e-19
1.99019e-19
2.0255e-19
2.04673e-19
2.05828e-19
2.06387e-19
2.06662e-19
2.0682e-19
2.06934e-19
2.0703e-19
2.0712e-19
2.07206e-19
2.07291e-19
2.07375e-19
2.07458e-19
2.0754e-19
2.07621e-19
2.07701e-19
2.0778e-19
2.07858e-19
2.07934e-19
2.08007e-19
2.08078e-19
2.08144e-19
2.08205e-19
2.08259e-19
2.08306e-19
2.08345e-19
2.08375e-19
2.08397e-19
2.08416e-19
2.08435e-19
2.08463e-19
2.08511e-19
2.08598e-19
2.08748e-19
2.08983e-19
2.09324e-19
2.09782e-19
2.10342e-19
2.1104e-19
1.98933e-19
2.02274e-19
2.0434e-19
2.05501e-19
2.06079e-19
2.06363e-19
2.0652e-19
2.06627e-19
2.06716e-19
2.06798e-19
2.06878e-19
2.06956e-19
2.07035e-19
2.07113e-19
2.07192e-19
2.0727e-19
2.07348e-19
2.07425e-19
2.07501e-19
2.07576e-19
2.07649e-19
2.07719e-19
2.07785e-19
2.07845e-19
2.07899e-19
2.07945e-19
2.07982e-19
2.0801e-19
2.0803e-19
2.08046e-19
2.08064e-19
2.08093e-19
2.08143e-19
2.08239e-19
2.08406e-19
2.08669e-19
2.09053e-19
2.09571e-19
2.10208e-19
2.11005e-19
1.98852e-19
2.02012e-19
2.04013e-19
2.05172e-19
2.05764e-19
2.06057e-19
2.06214e-19
2.06315e-19
2.06396e-19
2.0647e-19
2.06543e-19
2.06614e-19
2.06687e-19
2.0676e-19
2.06834e-19
2.06909e-19
2.06983e-19
2.07058e-19
2.07133e-19
2.07206e-19
2.07279e-19
2.07348e-19
2.07414e-19
2.07474e-19
2.07528e-19
2.07575e-19
2.07613e-19
2.07642e-19
2.07663e-19
2.0768e-19
2.077e-19
2.07732e-19
2.07788e-19
2.07894e-19
2.08077e-19
2.08366e-19
2.08791e-19
2.09365e-19
2.10077e-19
2.1097e-19
1.98778e-19
2.01765e-19
2.03699e-19
2.04849e-19
2.05451e-19
2.05752e-19
2.0591e-19
2.06007e-19
2.06081e-19
2.06148e-19
2.06212e-19
2.06277e-19
2.06343e-19
2.06411e-19
2.0648e-19
2.0655e-19
2.06621e-19
2.06692e-19
2.06764e-19
2.06836e-19
2.06906e-19
2.06975e-19
2.0704e-19
2.07101e-19
2.07156e-19
2.07205e-19
2.07245e-19
2.07277e-19
2.07301e-19
2.07323e-19
2.07347e-19
2.07384e-19
2.07447e-19
2.07563e-19
2.07762e-19
2.08076e-19
2.08537e-19
2.09164e-19
2.09948e-19
2.10936e-19
1.9871e-19
2.01534e-19
2.03399e-19
2.04536e-19
2.05145e-19
2.05454e-19
2.05614e-19
2.0571e-19
2.05779e-19
2.05838e-19
2.05896e-19
2.05954e-19
2.06014e-19
2.06075e-19
2.06138e-19
2.06203e-19
2.0627e-19
2.06337e-19
2.06406e-19
2.06475e-19
2.06543e-19
2.0661e-19
2.06675e-19
2.06736e-19
2.06792e-19
2.06842e-19
2.06886e-19
2.06921e-19
2.0695e-19
2.06977e-19
2.07007e-19
2.07051e-19
2.07123e-19
2.07249e-19
2.07462e-19
2.07797e-19
2.08292e-19
2.0897e-19
2.09823e-19
2.10903e-19
1.98647e-19
2.0132e-19
2.03116e-19
2.04236e-19
2.04851e-19
2.05168e-19
2.05333e-19
2.05428e-19
2.05494e-19
2.05548e-19
2.056e-19
2.05652e-19
2.05705e-19
2.05761e-19
2.05818e-19
2.05878e-19
2.05939e-19
2.06002e-19
2.06067e-19
2.06132e-19
2.06197e-19
2.06262e-19
2.06325e-19
2.06385e-19
2.06442e-19
2.06494e-19
2.0654e-19
2.06579e-19
2.06613e-19
2.06646e-19
2.06682e-19
2.06734e-19
2.06814e-19
2.06951e-19
2.07176e-19
2.07531e-19
2.08056e-19
2.0878e-19
2.097e-19
2.1087e-19
1.9859e-19
2.0112e-19
2.0285e-19
2.03952e-19
2.04571e-19
2.04897e-19
2.05068e-19
2.05165e-19
2.05229e-19
2.05281e-19
2.05328e-19
2.05374e-19
2.05422e-19
2.05472e-19
2.05525e-19
2.05579e-19
2.05635e-19
2.05693e-19
2.05753e-19
2.05813e-19
2.05875e-19
2.05936e-19
2.05997e-19
2.06056e-19
2.06112e-19
2.06164e-19
2.06212e-19
2.06255e-19
2.06294e-19
2.06332e-19
2.06375e-19
2.06434e-19
2.06523e-19
2.06668e-19
2.06905e-19
2.07276e-19
2.07828e-19
2.08597e-19
2.09579e-19
2.10837e-19
1.98537e-19
2.00936e-19
2.026e-19
2.03684e-19
2.04307e-19
2.04642e-19
2.04821e-19
2.04922e-19
2.04988e-19
2.05038e-19
2.05082e-19
2.05125e-19
2.05168e-19
2.05213e-19
2.0526e-19
2.05309e-19
2.0536e-19
2.05413e-19
2.05468e-19
2.05524e-19
2.0558e-19
2.05638e-19
2.05695e-19
2.05751e-19
2.05806e-19
2.05858e-19
2.05907e-19
2.05952e-19
2.05995e-19
2.06038e-19
2.06088e-19
2.06153e-19
2.06249e-19
2.06403e-19
2.06649e-19
2.07034e-19
2.0761e-19
2.08418e-19
2.09461e-19
2.10805e-19
1.98489e-19
2.00766e-19
2.02368e-19
2.03432e-19
2.04059e-19
2.04404e-19
2.04592e-19
2.047e-19
2.04768e-19
2.04819e-19
2.04862e-19
2.04902e-19
2.04942e-19
2.04984e-19
2.05026e-19
2.0507e-19
2.05116e-19
2.05164e-19
2.05214e-19
2.05265e-19
2.05317e-19
2.05369e-19
2.05423e-19
2.05475e-19
2.05527e-19
2.05578e-19
2.05626e-19
2.05673e-19
2.05718e-19
2.05766e-19
2.0582e-19
2.05891e-19
2.05993e-19
2.06154e-19
2.06408e-19
2.06804e-19
2.074e-19
2.08244e-19
2.09344e-19
2.10773e-19
1.98445e-19
2.00608e-19
2.02151e-19
2.03196e-19
2.03826e-19
2.04182e-19
2.04381e-19
2.04496e-19
2.04569e-19
2.04622e-19
2.04665e-19
2.04705e-19
2.04743e-19
2.04781e-19
2.0482e-19
2.04861e-19
2.04902e-19
2.04946e-19
2.0499e-19
2.05036e-19
2.05083e-19
2.05131e-19
2.0518e-19
2.05229e-19
2.05278e-19
2.05326e-19
2.05373e-19
2.0542e-19
2.05467e-19
2.05516e-19
2.05574e-19
2.05649e-19
2.05757e-19
2.05921e-19
2.0618e-19
2.06585e-19
2.07197e-19
2.08074e-19
2.09229e-19
2.10741e-19
1.98404e-19
2.00462e-19
2.01948e-19
2.02974e-19
2.03607e-19
2.03974e-19
2.04184e-19
2.04308e-19
2.04387e-19
2.04444e-19
2.04489e-19
2.04529e-19
2.04566e-19
2.04603e-19
2.04639e-19
2.04677e-19
2.04715e-19
2.04754e-19
2.04795e-19
2.04836e-19
2.04879e-19
2.04923e-19
2.04967e-19
2.05012e-19
2.05057e-19
2.05102e-19
2.05147e-19
2.05193e-19
2.0524e-19
2.05291e-19
2.05351e-19
2.05428e-19
2.05538e-19
2.05705e-19
2.05966e-19
2.06376e-19
2.07001e-19
2.07907e-19
2.09114e-19
2.10709e-19
1.98366e-19
2.00326e-19
2.01758e-19
2.02763e-19
2.03399e-19
2.03777e-19
2.03998e-19
2.04132e-19
2.04218e-19
2.0428e-19
2.04327e-19
2.04369e-19
2.04406e-19
2.04442e-19
2.04478e-19
2.04513e-19
2.04549e-19
2.04585e-19
2.04623e-19
2.04661e-19
2.047e-19
2.04739e-19
2.0478e-19
2.04821e-19
2.04863e-19
2.04905e-19
2.04947e-19
2.04991e-19
2.05037e-19
2.05088e-19
2.05148e-19
2.05227e-19
2.05337e-19
2.05503e-19
2.05764e-19
2.06174e-19
2.06809e-19
2.07741e-19
2.08999e-19
2.10677e-19
1.98331e-19
2.00197e-19
2.01577e-19
2.02563e-19
2.03199e-19
2.03587e-19
2.0382e-19
2.03964e-19
2.04057e-19
2.04123e-19
2.04175e-19
2.04218e-19
2.04257e-19
2.04293e-19
2.04328e-19
2.04363e-19
2.04398e-19
2.04433e-19
2.04468e-19
2.04504e-19
2.0454e-19
2.04577e-19
2.04614e-19
2.04652e-19
2.04691e-19
2.0473e-19
2.0477e-19
2.04811e-19
2.04856e-19
2.04905e-19
2.04965e-19
2.05042e-19
2.05151e-19
2.05314e-19
2.05571e-19
2.0598e-19
2.06621e-19
2.07576e-19
2.08883e-19
2.10644e-19
1.98297e-19
2.00075e-19
2.01404e-19
2.0237e-19
2.03006e-19
2.03402e-19
2.03645e-19
2.03798e-19
2.03898e-19
2.03969e-19
2.04024e-19
2.0407e-19
2.04111e-19
2.04148e-19
2.04184e-19
2.0422e-19
2.04255e-19
2.04289e-19
2.04324e-19
2.04358e-19
2.04393e-19
2.04428e-19
2.04464e-19
2.04499e-19
2.04535e-19
2.04572e-19
2.0461e-19
2.04649e-19
2.04692e-19
2.0474e-19
2.04797e-19
2.04871e-19
2.04976e-19
2.05134e-19
2.05385e-19
2.05789e-19
2.06433e-19
2.07409e-19
2.08764e-19
2.10611e-19
1.98265e-19
1.99959e-19
2.01238e-19
2.02181e-19
2.02815e-19
2.03218e-19
2.0347e-19
2.0363e-19
2.03736e-19
2.03811e-19
2.03869e-19
2.03918e-19
2.0396e-19
2.04e-19
2.04038e-19
2.04075e-19
2.04111e-19
2.04147e-19
2.04182e-19
2.04217e-19
2.04252e-19
2.04286e-19
2.04321e-19
2.04356e-19
2.04391e-19
2.04426e-19
2.04462e-19
2.045e-19
2.0454e-19
2.04585e-19
2.0464e-19
2.0471e-19
2.0481e-19
2.04961e-19
2.05203e-19
2.056e-19
2.06244e-19
2.07239e-19
2.08642e-19
2.10576e-19
1.98234e-19
1.99846e-19
2.01075e-19
2.01996e-19
2.02624e-19
2.03031e-19
2.03289e-19
2.03455e-19
2.03565e-19
2.03644e-19
2.03704e-19
2.03755e-19
2.038e-19
2.03841e-19
2.03882e-19
2.03921e-19
2.03959e-19
2.03997e-19
2.04034e-19
2.04071e-19
2.04107e-19
2.04143e-19
2.04179e-19
2.04214e-19
2.04248e-19
2.04283e-19
2.04318e-19
2.04355e-19
2.04394e-19
2.04437e-19
2.04488e-19
2.04554e-19
2.04647e-19
2.04789e-19
2.05021e-19
2.05409e-19
2.06051e-19
2.07063e-19
2.08515e-19
2.1054e-19
1.98204e-19
1.99736e-19
2.00915e-19
2.0181e-19
2.02431e-19
2.02838e-19
2.031e-19
2.03269e-19
2.03382e-19
2.03462e-19
2.03524e-19
2.03576e-19
2.03622e-19
2.03666e-19
2.03709e-19
2.03751e-19
2.03793e-19
2.03834e-19
2.03874e-19
2.03914e-19
2.03953e-19
2.03991e-19
2.04028e-19
2.04065e-19
2.04101e-19
2.04137e-19
2.04172e-19
2.04208e-19
2.04246e-19
2.04287e-19
2.04335e-19
2.04397e-19
2.04483e-19
2.04616e-19
2.04836e-19
2.05212e-19
2.05851e-19
2.0688e-19
2.08381e-19
2.10501e-19
1.98174e-19
1.99627e-19
2.00755e-19
2.01622e-19
2.02232e-19
2.02638e-19
2.029e-19
2.0307e-19
2.03183e-19
2.03263e-19
2.03325e-19
2.03377e-19
2.03424e-19
2.0347e-19
2.03515e-19
2.0356e-19
2.03605e-19
2.0365e-19
2.03694e-19
2.03738e-19
2.0378e-19
2.03822e-19
2.03863e-19
2.03902e-19
2.03941e-19
2.03978e-19
2.04015e-19
2.04052e-19
2.0409e-19
2.0413e-19
2.04176e-19
2.04233e-19
2.04312e-19
2.04436e-19
2.04644e-19
2.05008e-19
2.05643e-19
2.06687e-19
2.08239e-19
2.1046e-19
1.98145e-19
1.99519e-19
2.00595e-19
2.01431e-19
2.02026e-19
2.02427e-19
2.02688e-19
2.02856e-19
2.02967e-19
2.03044e-19
2.03104e-19
2.03156e-19
2.03203e-19
2.0325e-19
2.03297e-19
2.03345e-19
2.03393e-19
2.03442e-19
2.0349e-19
2.03538e-19
2.03585e-19
2.03631e-19
2.03676e-19
2.03719e-19
2.03761e-19
2.03802e-19
2.03842e-19
2.03881e-19
2.03919e-19
2.03959e-19
2.04003e-19
2.04057e-19
2.0413e-19
2.04245e-19
2.04441e-19
2.04794e-19
2.05422e-19
2.06482e-19
2.08087e-19
2.10417e-19
1.98116e-19
1.99411e-19
2.00432e-19
2.01234e-19
2.01812e-19
2.02204e-19
2.0246e-19
2.02624e-19
2.02731e-19
2.02805e-19
2.02862e-19
2.02911e-19
2.02957e-19
2.03004e-19
2.03052e-19
2.03102e-19
2.03153e-19
2.03206e-19
2.03258e-19
2.03311e-19
2.03363e-19
2.03414e-19
2.03463e-19
2.03511e-19
2.03558e-19
2.03602e-19
2.03646e-19
2.03687e-19
2.03728e-19
2.0377e-19
2.03813e-19
2.03865e-19
2.03934e-19
2.0404e-19
2.04226e-19
2.04566e-19
2.05189e-19
2.06264e-19
2.07924e-19
2.10369e-19
1.98087e-19
1.99302e-19
2.00267e-19
2.01032e-19
2.01589e-19
2.01969e-19
2.02218e-19
2.02376e-19
2.02477e-19
2.02546e-19
2.02598e-19
2.02643e-19
2.02687e-19
2.02732e-19
2.0278e-19
2.02832e-19
2.02886e-19
2.02941e-19
2.02998e-19
2.03055e-19
2.03111e-19
2.03167e-19
2.03222e-19
2.03275e-19
2.03326e-19
2.03376e-19
2.03423e-19
2.03469e-19
2.03513e-19
2.03557e-19
2.03602e-19
2.03653e-19
2.03719e-19
2.03819e-19
2.03995e-19
2.04325e-19
2.04941e-19
2.0603e-19
2.07748e-19
2.10317e-19
1.98057e-19
1.99192e-19
2.00098e-19
2.00823e-19
2.01355e-19
2.01721e-19
2.0196e-19
2.02111e-19
2.02205e-19
2.02267e-19
2.02314e-19
2.02355e-19
2.02394e-19
2.02437e-19
2.02485e-19
2.02536e-19
2.02591e-19
2.02649e-19
2.02709e-19
2.0277e-19
2.02831e-19
2.02891e-19
2.02951e-19
2.03009e-19
2.03065e-19
2.0312e-19
2.03173e-19
2.03223e-19
2.03272e-19
2.0332e-19
2.03368e-19
2.0342e-19
2.03485e-19
2.03581e-19
2.03749e-19
2.04068e-19
2.04678e-19
2.05781e-19
2.07559e-19
2.10261e-19
1.98028e-19
1.99081e-19
1.99926e-19
2.00607e-19
2.01111e-19
2.0146e-19
2.01688e-19
2.01829e-19
2.01916e-19
2.01971e-19
2.02012e-19
2.02047e-19
2.02082e-19
2.02122e-19
2.02167e-19
2.02218e-19
2.02274e-19
2.02333e-19
2.02395e-19
2.02458e-19
2.02523e-19
2.02588e-19
2.02652e-19
2.02715e-19
2.02776e-19
2.02836e-19
2.02894e-19
2.0295e-19
2.03005e-19
2.03057e-19
2.0311e-19
2.03165e-19
2.03231e-19
2.03326e-19
2.03487e-19
2.03797e-19
2.044e-19
2.05516e-19
2.07354e-19
2.102e-19
1.97998e-19
1.98968e-19
1.9975e-19
2.00384e-19
2.00858e-19
2.01187e-19
2.01401e-19
2.01533e-19
2.01611e-19
2.0166e-19
2.01694e-19
2.01724e-19
2.01754e-19
2.0179e-19
2.01833e-19
2.01882e-19
2.01937e-19
2.01996e-19
2.0206e-19
2.02125e-19
2.02193e-19
2.02261e-19
2.02329e-19
2.02396e-19
2.02462e-19
2.02528e-19
2.02591e-19
2.02653e-19
2.02713e-19
2.02772e-19
2.0283e-19
2.0289e-19
2.02959e-19
2.03054e-19
2.03211e-19
2.03512e-19
2.04107e-19
2.05234e-19
2.07134e-19
2.10133e-19
1.97968e-19
1.98853e-19
1.99569e-19
2.00154e-19
2.00594e-19
2.009e-19
2.011e-19
2.01221e-19
2.01291e-19
2.01334e-19
2.01363e-19
2.01388e-19
2.01414e-19
2.01447e-19
2.01486e-19
2.01533e-19
2.01587e-19
2.01646e-19
2.0171e-19
2.01777e-19
2.01846e-19
2.01917e-19
2.01988e-19
2.02059e-19
2.02129e-19
2.02199e-19
2.02268e-19
2.02335e-19
2.02402e-19
2.02467e-19
2.02532e-19
2.02599e-19
2.02673e-19
2.0277e-19
2.02924e-19
2.03216e-19
2.03802e-19
2.04937e-19
2.06899e-19
2.1006e-19
1.97937e-19
1.98737e-19
1.99385e-19
1.99918e-19
2.00321e-19
2.00602e-19
2.00786e-19
2.00897e-19
2.00959e-19
2.00997e-19
2.01022e-19
2.01043e-19
2.01066e-19
2.01096e-19
2.01133e-19
2.01179e-19
2.01231e-19
2.0129e-19
2.01354e-19
2.01421e-19
2.01492e-19
2.01564e-19
2.01637e-19
2.01711e-19
2.01785e-19
2.01859e-19
2.01932e-19
2.02005e-19
2.02078e-19
2.0215e-19
2.02222e-19
2.02296e-19
2.02377e-19
2.02477e-19
2.0263e-19
2.02914e-19
2.03488e-19
2.04627e-19
2.06648e-19
2.0998e-19
1.97906e-19
1.98618e-19
1.99196e-19
1.99675e-19
2.00038e-19
2.00292e-19
2.00459e-19
2.0056e-19
2.00617e-19
2.00651e-19
2.00674e-19
2.00694e-19
2.00716e-19
2.00745e-19
2.00782e-19
2.00826e-19
2.00878e-19
2.00936e-19
2.01e-19
2.01068e-19
2.01139e-19
2.01212e-19
2.01287e-19
2.01363e-19
2.0144e-19
2.01517e-19
2.01594e-19
2.01672e-19
2.0175e-19
2.01828e-19
2.01907e-19
2.01989e-19
2.02077e-19
2.02183e-19
2.02336e-19
2.02611e-19
2.0317e-19
2.04306e-19
2.06381e-19
2.09894e-19
1.97875e-19
1.98497e-19
1.99004e-19
1.99425e-19
1.99746e-19
1.99972e-19
2.00121e-19
2.00213e-19
2.00267e-19
2.003e-19
2.00324e-19
2.00346e-19
2.00371e-19
2.00401e-19
2.00439e-19
2.00485e-19
2.00538e-19
2.00596e-19
2.0066e-19
2.00728e-19
2.008e-19
2.00874e-19
2.00949e-19
2.01027e-19
2.01105e-19
2.01185e-19
2.01265e-19
2.01347e-19
2.0143e-19
2.01514e-19
2.01599e-19
2.01688e-19
2.01783e-19
2.01895e-19
2.02049e-19
2.02316e-19
2.02855e-19
2.0398e-19
2.06103e-19
2.09802e-19
1.97843e-19
1.98375e-19
1.98808e-19
1.9917e-19
1.99447e-19
1.99644e-19
1.99777e-19
1.99862e-19
1.99915e-19
1.99952e-19
1.99981e-19
2.00008e-19
2.00039e-19
2.00075e-19
2.00117e-19
2.00166e-19
2.00221e-19
2.00281e-19
2.00346e-19
2.00415e-19
2.00487e-19
2.00561e-19
2.00638e-19
2.00716e-19
2.00796e-19
2.00877e-19
2.0096e-19
2.01045e-19
2.01131e-19
2.0122e-19
2.01311e-19
2.01406e-19
2.01507e-19
2.01624e-19
2.01779e-19
2.02036e-19
2.02551e-19
2.03654e-19
2.05814e-19
2.09703e-19
1.97811e-19
1.98252e-19
1.98612e-19
1.98913e-19
1.99147e-19
1.99316e-19
1.99436e-19
1.99517e-19
1.99575e-19
1.99619e-19
1.99657e-19
1.99695e-19
1.99735e-19
1.99779e-19
1.99829e-19
1.99883e-19
1.99942e-19
2.00005e-19
2.00071e-19
2.00141e-19
2.00214e-19
2.00289e-19
2.00366e-19
2.00445e-19
2.00526e-19
2.00609e-19
2.00693e-19
2.0078e-19
2.00869e-19
2.00961e-19
2.01057e-19
2.01156e-19
2.01263e-19
2.01384e-19
2.01539e-19
2.01785e-19
2.02273e-19
2.0334e-19
2.0552e-19
2.09599e-19
1.97781e-19
1.98134e-19
1.98421e-19
1.98665e-19
1.98859e-19
1.99006e-19
1.99116e-19
1.992e-19
1.99266e-19
1.99322e-19
1.99374e-19
1.99424e-19
1.99477e-19
1.99531e-19
1.99589e-19
1.99649e-19
1.99713e-19
1.9978e-19
1.99849e-19
1.99921e-19
1.99994e-19
2.0007e-19
2.00148e-19
2.00228e-19
2.00309e-19
2.00393e-19
2.00479e-19
2.00568e-19
2.00659e-19
2.00754e-19
2.00852e-19
2.00955e-19
2.01066e-19
2.01189e-19
2.01343e-19
2.01577e-19
2.02034e-19
2.03055e-19
2.05238e-19
2.09495e-19
1.97754e-19
1.98029e-19
1.98255e-19
1.9845e-19
1.98611e-19
1.98742e-19
1.98849e-19
1.98939e-19
1.99016e-19
1.99086e-19
1.99152e-19
1.99217e-19
1.99281e-19
1.99346e-19
1.99412e-19
1.99479e-19
1.99548e-19
1.99618e-19
1.9969e-19
1.99763e-19
1.99838e-19
1.99915e-19
1.99994e-19
2.00074e-19
2.00157e-19
2.00242e-19
2.00329e-19
2.00419e-19
2.00512e-19
2.00609e-19
2.0071e-19
2.00816e-19
2.00929e-19
2.01055e-19
2.01208e-19
2.01433e-19
2.01858e-19
2.02824e-19
2.04984e-19
2.09396e-19
1.97735e-19
1.97954e-19
1.98135e-19
1.98297e-19
1.98438e-19
1.98561e-19
1.98669e-19
1.98766e-19
1.98854e-19
1.98936e-19
1.99014e-19
1.99089e-19
1.99162e-19
1.99235e-19
1.99307e-19
1.99379e-19
1.99451e-19
1.99524e-19
1.99598e-19
1.99673e-19
1.9975e-19
1.99828e-19
1.99907e-19
1.99989e-19
2.00072e-19
2.00158e-19
2.00247e-19
2.00338e-19
2.00433e-19
2.00532e-19
2.00634e-19
2.00743e-19
2.00858e-19
2.00987e-19
2.01143e-19
2.01368e-19
2.01779e-19
2.02704e-19
2.04823e-19
2.09327e-19
1.97731e-19
1.97919e-19
1.9808e-19
1.98228e-19
1.98361e-19
1.98483e-19
1.98593e-19
1.98694e-19
1.98788e-19
1.98876e-19
1.98959e-19
1.99039e-19
1.99117e-19
1.99193e-19
1.99268e-19
1.99342e-19
1.99416e-19
1.99491e-19
1.99566e-19
1.99642e-19
1.99719e-19
1.99798e-19
1.99878e-19
1.9996e-19
2.00045e-19
2.00131e-19
2.00221e-19
2.00313e-19
2.00409e-19
2.00509e-19
2.00614e-19
2.00724e-19
2.00842e-19
2.00975e-19
2.01138e-19
2.01375e-19
2.01803e-19
2.02729e-19
2.04812e-19
2.0914e-19
3.11768e-19
3.18984e-19
3.22185e-19
3.23516e-19
3.24118e-19
3.24462e-19
3.24708e-19
3.24913e-19
3.25099e-19
3.25274e-19
3.2544e-19
3.25599e-19
3.25752e-19
3.25901e-19
3.26044e-19
3.26184e-19
3.2632e-19
3.26453e-19
3.26583e-19
3.26711e-19
3.26836e-19
3.2696e-19
3.27083e-19
3.27205e-19
3.27327e-19
3.2745e-19
3.27573e-19
3.27699e-19
3.27828e-19
3.27961e-19
3.281e-19
3.28246e-19
3.28402e-19
3.2857e-19
3.28752e-19
3.28952e-19
3.29174e-19
3.2942e-19
3.29691e-19
3.30024e-19
3.10803e-19
9.26451e-19
1.04021e-18
1.04961e-18
1.04993e-18
1.04893e-18
1.04846e-18
1.0484e-18
1.04861e-18
1.04894e-18
1.04935e-18
1.0498e-18
1.05025e-18
1.0507e-18
1.05119e-18
1.05165e-18
1.05209e-18
1.05251e-18
1.05291e-18
1.05325e-18
1.05355e-18
1.05377e-18
1.05387e-18
1.05366e-18
1.05325e-18
1.0527e-18
1.05209e-18
1.05153e-18
1.05128e-18
1.05147e-18
1.05239e-18
1.05515e-18
1.06048e-18
1.06463e-18
1.06985e-18
1.07592e-18
1.07956e-18
1.07108e-18
9.43402e-19
3.3005e-19
3.10749e-19
1.05597e-18
1.19222e-18
1.20211e-18
1.20209e-18
1.20232e-18
1.20261e-18
1.20307e-18
1.2036e-18
1.20415e-18
1.20472e-18
1.20528e-18
1.20577e-18
1.20627e-18
1.20683e-18
1.20737e-18
1.20785e-18
1.20832e-18
1.20879e-18
1.20917e-18
1.20952e-18
1.20988e-18
1.21024e-18
1.21049e-18
1.21071e-18
1.21089e-18
1.21107e-18
1.2113e-18
1.21159e-18
1.21176e-18
1.21219e-18
1.21424e-18
1.21633e-18
1.21955e-18
1.22252e-18
1.22702e-18
1.22775e-18
1.20951e-18
1.02473e-18
3.30027e-19
3.10644e-19
1.0585e-18
1.20206e-18
1.21058e-18
1.21192e-18
1.21259e-18
1.21325e-18
1.21383e-18
1.21442e-18
1.215e-18
1.21558e-18
1.21613e-18
1.21666e-18
1.21719e-18
1.21774e-18
1.21826e-18
1.21873e-18
1.21918e-18
1.21965e-18
1.22007e-18
1.22043e-18
1.22094e-18
1.22136e-18
1.22174e-18
1.22208e-18
1.22237e-18
1.22259e-18
1.22273e-18
1.22259e-18
1.222e-18
1.22251e-18
1.22339e-18
1.22453e-18
1.22735e-18
1.22819e-18
1.23314e-18
1.23335e-18
1.21449e-18
1.02715e-18
3.29994e-19
3.1053e-19
1.05144e-18
1.1995e-18
1.20613e-18
1.21106e-18
1.21171e-18
1.21269e-18
1.21326e-18
1.21386e-18
1.2144e-18
1.21494e-18
1.21547e-18
1.21599e-18
1.21651e-18
1.21705e-18
1.21757e-18
1.21808e-18
1.21858e-18
1.21908e-18
1.21956e-18
1.21998e-18
1.22048e-18
1.22091e-18
1.22131e-18
1.22164e-18
1.22188e-18
1.222e-18
1.22182e-18
1.22102e-18
1.22036e-18
1.22069e-18
1.21986e-18
1.21867e-18
1.22319e-18
1.22538e-18
1.22917e-18
1.23221e-18
1.21151e-18
1.02583e-18
3.29958e-19
3.10414e-19
1.0412e-18
1.19248e-18
1.20572e-18
1.20736e-18
1.20956e-18
1.21076e-18
1.21157e-18
1.21219e-18
1.21274e-18
1.21327e-18
1.21379e-18
1.2143e-18
1.21481e-18
1.21533e-18
1.21585e-18
1.21636e-18
1.21688e-18
1.21741e-18
1.21792e-18
1.21841e-18
1.21889e-18
1.21932e-18
1.21972e-18
1.22001e-18
1.22021e-18
1.2202e-18
1.21981e-18
1.21898e-18
1.2185e-18
1.21762e-18
1.21514e-18
1.21502e-18
1.21538e-18
1.22184e-18
1.22328e-18
1.22911e-18
1.20987e-18
1.02462e-18
3.29921e-19
3.10304e-19
1.03313e-18
1.18662e-18
1.2042e-18
1.20441e-18
1.20761e-18
1.20879e-18
1.20969e-18
1.21033e-18
1.21088e-18
1.21139e-18
1.21189e-18
1.21239e-18
1.21289e-18
1.21339e-18
1.2139e-18
1.21442e-18
1.21494e-18
1.21548e-18
1.21601e-18
1.21653e-18
1.21699e-18
1.21739e-18
1.21788e-18
1.21817e-18
1.21834e-18
1.21828e-18
1.21769e-18
1.21693e-18
1.21604e-18
1.21475e-18
1.21156e-18
1.21271e-18
1.21193e-18
1.215e-18
1.2186e-18
1.22404e-18
1.2073e-18
1.02399e-18
3.29884e-19
3.10203e-19
1.02766e-18
1.18329e-18
1.19877e-18
1.20306e-18
1.20476e-18
1.20695e-18
1.20771e-18
1.2084e-18
1.20894e-18
1.20943e-18
1.20991e-18
1.21038e-18
1.21086e-18
1.21135e-18
1.21184e-18
1.21235e-18
1.21287e-18
1.21341e-18
1.21395e-18
1.21449e-18
1.21496e-18
1.21535e-18
1.21578e-18
1.2161e-18
1.21628e-18
1.21625e-18
1.21571e-18
1.2149e-18
1.2137e-18
1.2125e-18
1.21028e-18
1.20876e-18
1.20828e-18
1.20997e-18
1.2135e-18
1.21984e-18
1.20524e-18
1.02384e-18
3.29848e-19
3.1011e-19
1.02264e-18
1.17837e-18
1.19316e-18
1.20086e-18
1.20377e-18
1.20478e-18
1.20574e-18
1.20645e-18
1.20699e-18
1.20746e-18
1.20791e-18
1.20836e-18
1.20881e-18
1.20927e-18
1.20975e-18
1.21023e-18
1.21074e-18
1.21126e-18
1.2118e-18
1.21234e-18
1.21284e-18
1.21324e-18
1.21358e-18
1.21395e-18
1.21415e-18
1.21416e-18
1.21376e-18
1.21295e-18
1.21172e-18
1.21031e-18
1.20852e-18
1.20613e-18
1.20532e-18
1.20595e-18
1.20918e-18
1.21502e-18
1.20352e-18
1.02417e-18
3.29812e-19
3.10026e-19
1.01858e-18
1.17551e-18
1.19168e-18
1.19826e-18
1.202e-18
1.20299e-18
1.20385e-18
1.20456e-18
1.2051e-18
1.20554e-18
1.20596e-18
1.20638e-18
1.20679e-18
1.20723e-18
1.20767e-18
1.20814e-18
1.20862e-18
1.20912e-18
1.20963e-18
1.21016e-18
1.21067e-18
1.21108e-18
1.2114e-18
1.21181e-18
1.21202e-18
1.21208e-18
1.21174e-18
1.21101e-18
1.20985e-18
1.20851e-18
1.2068e-18
1.20412e-18
1.2029e-18
1.20276e-18
1.2052e-18
1.20949e-18
1.20215e-18
1.02485e-18
3.29777e-19
3.09949e-19
1.01513e-18
1.1731e-18
1.19003e-18
1.19584e-18
1.19889e-18
1.20139e-18
1.20219e-18
1.20274e-18
1.20331e-18
1.20372e-18
1.20411e-18
1.2045e-18
1.20486e-18
1.20527e-18
1.20569e-18
1.20612e-18
1.20657e-18
1.20703e-18
1.20752e-18
1.20803e-18
1.20853e-18
1.20895e-18
1.20928e-18
1.20966e-18
1.20992e-18
1.21e-18
1.20975e-18
1.20912e-18
1.20807e-18
1.20676e-18
1.20529e-18
1.20264e-18
1.20133e-18
1.201e-18
1.20216e-18
1.20516e-18
1.20023e-18
1.0261e-18
3.29743e-19
3.09879e-19
1.01207e-18
1.17088e-18
1.18815e-18
1.19378e-18
1.19748e-18
1.19953e-18
1.20073e-18
1.20118e-18
1.2017e-18
1.20204e-18
1.2024e-18
1.20277e-18
1.20304e-18
1.20345e-18
1.20383e-18
1.20423e-18
1.20464e-18
1.20507e-18
1.20552e-18
1.20599e-18
1.20647e-18
1.2069e-18
1.20725e-18
1.20759e-18
1.20787e-18
1.20798e-18
1.20781e-18
1.20729e-18
1.20643e-18
1.20501e-18
1.20389e-18
1.20135e-18
1.2e-18
1.19974e-18
1.20069e-18
1.20338e-18
1.19751e-18
1.02738e-18
3.29708e-19
3.09816e-19
1.00888e-18
1.16911e-18
1.18679e-18
1.19269e-18
1.19604e-18
1.19769e-18
1.1989e-18
1.19979e-18
1.20015e-18
1.2005e-18
1.20083e-18
1.20114e-18
1.20146e-18
1.2018e-18
1.20214e-18
1.20251e-18
1.20285e-18
1.20326e-18
1.20367e-18
1.2041e-18
1.20453e-18
1.20498e-18
1.20531e-18
1.20565e-18
1.20593e-18
1.20604e-18
1.20593e-18
1.20551e-18
1.20484e-18
1.20324e-18
1.20274e-18
1.20027e-18
1.19886e-18
1.19829e-18
1.19948e-18
1.20234e-18
1.19562e-18
1.02885e-18
3.29675e-19
3.09758e-19
1.00611e-18
1.1675e-18
1.18537e-18
1.19113e-18
1.19429e-18
1.19628e-18
1.1975e-18
1.19827e-18
1.19873e-18
1.1991e-18
1.19941e-18
1.19968e-18
1.20006e-18
1.20033e-18
1.20064e-18
1.20095e-18
1.20129e-18
1.20164e-18
1.20201e-18
1.20239e-18
1.20278e-18
1.20318e-18
1.2035e-18
1.20384e-18
1.2041e-18
1.20423e-18
1.20418e-18
1.20383e-18
1.20332e-18
1.20206e-18
1.20139e-18
1.19942e-18
1.1981e-18
1.19759e-18
1.19874e-18
1.20087e-18
1.19393e-18
1.03042e-18
3.29641e-19
3.09705e-19
1.00394e-18
1.16607e-18
1.18409e-18
1.18979e-18
1.19297e-18
1.19487e-18
1.19617e-18
1.19696e-18
1.19747e-18
1.19785e-18
1.19817e-18
1.19846e-18
1.19876e-18
1.19903e-18
1.1993e-18
1.19958e-18
1.19992e-18
1.20021e-18
1.20053e-18
1.20087e-18
1.20122e-18
1.20156e-18
1.20188e-18
1.20219e-18
1.20243e-18
1.20258e-18
1.20257e-18
1.20232e-18
1.20188e-18
1.20121e-18
1.20003e-18
1.19863e-18
1.19745e-18
1.19702e-18
1.19825e-18
1.20017e-18
1.19302e-18
1.03222e-18
3.29608e-19
3.09658e-19
1.00218e-18
1.16472e-18
1.18282e-18
1.18846e-18
1.19162e-18
1.19378e-18
1.19507e-18
1.19579e-18
1.19633e-18
1.19674e-18
1.19707e-18
1.19736e-18
1.19764e-18
1.1979e-18
1.19815e-18
1.19841e-18
1.19869e-18
1.19896e-18
1.19924e-18
1.19954e-18
1.19984e-18
1.20015e-18
1.20044e-18
1.20072e-18
1.20095e-18
1.2011e-18
1.20112e-18
1.20097e-18
1.20055e-18
1.20016e-18
1.1991e-18
1.198e-18
1.19693e-18
1.1964e-18
1.19758e-18
1.20012e-18
1.1926e-18
1.034e-18
3.29574e-19
3.09614e-19
1.00071e-18
1.16337e-18
1.18152e-18
1.18713e-18
1.19048e-18
1.19253e-18
1.19365e-18
1.19461e-18
1.19524e-18
1.19571e-18
1.19607e-18
1.19638e-18
1.19665e-18
1.1969e-18
1.19714e-18
1.19738e-18
1.19762e-18
1.19787e-18
1.19812e-18
1.19838e-18
1.19865e-18
1.19892e-18
1.19918e-18
1.19943e-18
1.19964e-18
1.19979e-18
1.19982e-18
1.19974e-18
1.1994e-18
1.19905e-18
1.19826e-18
1.19757e-18
1.19675e-18
1.19628e-18
1.19719e-18
1.2e-18
1.19246e-18
1.03527e-18
3.29541e-19
3.09573e-19
9.99348e-19
1.16199e-18
1.1801e-18
1.18556e-18
1.18887e-18
1.19097e-18
1.19243e-18
1.19348e-18
1.1942e-18
1.19474e-18
1.19515e-18
1.19548e-18
1.19575e-18
1.196e-18
1.19624e-18
1.19646e-18
1.19669e-18
1.19691e-18
1.19714e-18
1.19737e-18
1.19761e-18
1.19785e-18
1.19808e-18
1.1983e-18
1.1985e-18
1.19865e-18
1.19873e-18
1.19872e-18
1.19862e-18
1.19829e-18
1.19769e-18
1.19678e-18
1.19612e-18
1.19607e-18
1.19699e-18
1.19946e-18
1.19257e-18
1.03727e-18
3.29507e-19
3.09535e-19
9.97631e-19
1.16059e-18
1.17857e-18
1.18392e-18
1.18727e-18
1.18955e-18
1.19116e-18
1.19233e-18
1.19317e-18
1.19378e-18
1.19425e-18
1.19461e-18
1.1949e-18
1.19516e-18
1.1954e-18
1.19562e-18
1.19583e-18
1.19604e-18
1.19625e-18
1.19647e-18
1.19668e-18
1.1969e-18
1.19711e-18
1.19731e-18
1.19749e-18
1.19765e-18
1.19774e-18
1.19774e-18
1.19766e-18
1.19741e-18
1.19697e-18
1.1964e-18
1.19594e-18
1.19592e-18
1.19683e-18
1.19896e-18
1.19233e-18
1.03869e-18
3.29473e-19
3.095e-19
9.96005e-19
1.15909e-18
1.17693e-18
1.18216e-18
1.18555e-18
1.18799e-18
1.18979e-18
1.19113e-18
1.19209e-18
1.1928e-18
1.19333e-18
1.19373e-18
1.19406e-18
1.19433e-18
1.19457e-18
1.19479e-18
1.19501e-18
1.19521e-18
1.19542e-18
1.19562e-18
1.19583e-18
1.19603e-18
1.19623e-18
1.19642e-18
1.19659e-18
1.19673e-18
1.19684e-18
1.19688e-18
1.19684e-18
1.19667e-18
1.19637e-18
1.19599e-18
1.19567e-18
1.19573e-18
1.19666e-18
1.19871e-18
1.19207e-18
1.03959e-18
3.29437e-19
3.09466e-19
9.94241e-19
1.15744e-18
1.17521e-18
1.18027e-18
1.18371e-18
1.18629e-18
1.18829e-18
1.18983e-18
1.19094e-18
1.19176e-18
1.19236e-18
1.19281e-18
1.19317e-18
1.19346e-18
1.19372e-18
1.19395e-18
1.19417e-18
1.19438e-18
1.19459e-18
1.19479e-18
1.19499e-18
1.19519e-18
1.19538e-18
1.19557e-18
1.19574e-18
1.19588e-18
1.196e-18
1.19606e-18
1.19606e-18
1.19596e-18
1.19577e-18
1.19553e-18
1.19532e-18
1.19546e-18
1.19639e-18
1.19829e-18
1.19183e-18
1.04033e-18
3.29401e-19
3.09433e-19
9.92509e-19
1.15603e-18
1.17331e-18
1.17825e-18
1.18171e-18
1.18441e-18
1.18668e-18
1.18848e-18
1.1897e-18
1.19062e-18
1.19132e-18
1.19181e-18
1.1922e-18
1.19252e-18
1.1928e-18
1.19305e-18
1.19328e-18
1.1935e-18
1.19372e-18
1.19393e-18
1.19413e-18
1.19433e-18
1.19453e-18
1.19471e-18
1.19488e-18
1.19504e-18
1.19516e-18
1.19525e-18