/*--------------------------------*- C++ -*----------------------------------*\
  =========                 |
  \\      /  F ield         | OpenFOAM: The Open Source CFD Toolbox
   \\    /   O peration     | Website:  https://openfoam.org
    \\  /    A nd           | Version:  12
     \\/     M anipulation  |
\*---------------------------------------------------------------------------*/
FoamFile
{
    format      ascii;
    class       volScalarField;
    location    "500";
    object      nut;
}
// * * * * * * * * * * * * * * * * * * * * * * * * * * * * * * * * * * * * * //

dimensions      [0 2 -1 0 0 0 0];

internalField   nonuniform List<scalar> 
8000
(
1.73806e-19
1.75789e-19
1.76703e-19
1.77115e-19
1.77305e-19
1.77409e-19
1.7748e-19
1.77538e-19
1.77589e-19
1.77637e-19
1.77682e-19
1.77726e-19
1.77768e-19
1.77808e-19
1.77847e-19
1.77885e-19
1.77923e-19
1.77959e-19
1.77994e-19
1.78029e-19
1.78063e-19
1.78097e-19
1.7813e-19
1.78163e-19
1.78197e-19
1.7823e-19
1.78263e-19
1.78297e-19
1.78332e-19
1.78367e-19
1.78405e-19
1.78444e-19
1.78487e-19
1.78533e-19
1.78583e-19
1.78638e-19
1.78699e-19
1.78767e-19
1.78842e-19
1.78936e-19
1.73661e-19
1.75783e-19
1.76714e-19
1.77125e-19
1.77307e-19
1.77406e-19
1.77474e-19
1.7753e-19
1.7758e-19
1.77627e-19
1.77672e-19
1.77715e-19
1.77756e-19
1.77796e-19
1.77835e-19
1.77873e-19
1.77909e-19
1.77945e-19
1.7798e-19
1.78015e-19
1.78049e-19
1.78082e-19
1.78115e-19
1.78147e-19
1.7818e-19
1.78212e-19
1.78244e-19
1.78276e-19
1.78309e-19
1.78342e-19
1.78377e-19
1.78414e-19
1.78453e-19
1.78496e-19
1.78545e-19
1.78601e-19
1.78666e-19
1.7874e-19
1.78825e-19
1.78939e-19
1.73641e-19
1.75712e-19
1.76659e-19
1.77089e-19
1.77277e-19
1.77376e-19
1.77443e-19
1.77498e-19
1.77547e-19
1.77593e-19
1.77637e-19
1.77679e-19
1.77719e-19
1.77759e-19
1.77797e-19
1.77834e-19
1.7787e-19
1.77906e-19
1.77941e-19
1.77975e-19
1.78008e-19
1.7804e-19
1.78072e-19
1.78103e-19
1.78134e-19
1.78164e-19
1.78193e-19
1.78222e-19
1.7825e-19
1.78278e-19
1.78307e-19
1.78338e-19
1.78372e-19
1.78411e-19
1.78459e-19
1.78518e-19
1.78592e-19
1.78682e-19
1.78788e-19
1.78932e-19
1.73612e-19
1.75602e-19
1.76555e-19
1.77009e-19
1.77212e-19
1.77315e-19
1.77382e-19
1.77436e-19
1.77484e-19
1.77528e-19
1.77571e-19
1.77612e-19
1.77652e-19
1.77691e-19
1.77728e-19
1.77765e-19
1.77801e-19
1.77836e-19
1.7787e-19
1.77904e-19
1.77936e-19
1.77968e-19
1.77999e-19
1.78028e-19
1.78057e-19
1.78083e-19
1.78109e-19
1.78133e-19
1.78155e-19
1.78177e-19
1.78199e-19
1.78223e-19
1.7825e-19
1.78286e-19
1.78335e-19
1.784e-19
1.78489e-19
1.78602e-19
1.78738e-19
1.78922e-19
1.73581e-19
1.75479e-19
1.76427e-19
1.76901e-19
1.77118e-19
1.77227e-19
1.77294e-19
1.77347e-19
1.77393e-19
1.77436e-19
1.77478e-19
1.77518e-19
1.77556e-19
1.77594e-19
1.77631e-19
1.77667e-19
1.77703e-19
1.77737e-19
1.77771e-19
1.77804e-19
1.77836e-19
1.77867e-19
1.77897e-19
1.77925e-19
1.77951e-19
1.77975e-19
1.77996e-19
1.78015e-19
1.78032e-19
1.78047e-19
1.78063e-19
1.7808e-19
1.78104e-19
1.78138e-19
1.78189e-19
1.78265e-19
1.78371e-19
1.78511e-19
1.78681e-19
1.78912e-19
1.73551e-19
1.75352e-19
1.76288e-19
1.76776e-19
1.77005e-19
1.77119e-19
1.77187e-19
1.77237e-19
1.77281e-19
1.77322e-19
1.77362e-19
1.774e-19
1.77438e-19
1.77474e-19
1.7751e-19
1.77546e-19
1.77581e-19
1.77615e-19
1.77649e-19
1.77681e-19
1.77713e-19
1.77743e-19
1.77772e-19
1.77799e-19
1.77823e-19
1.77844e-19
1.77863e-19
1.77878e-19
1.7789e-19
1.77901e-19
1.77911e-19
1.77925e-19
1.77946e-19
1.77981e-19
1.78038e-19
1.78125e-19
1.78251e-19
1.78418e-19
1.78622e-19
1.78901e-19
1.73522e-19
1.75227e-19
1.76144e-19
1.7664e-19
1.7688e-19
1.76998e-19
1.77065e-19
1.77114e-19
1.77155e-19
1.77193e-19
1.7723e-19
1.77266e-19
1.77302e-19
1.77337e-19
1.77372e-19
1.77407e-19
1.77441e-19
1.77475e-19
1.77508e-19
1.7754e-19
1.77572e-19
1.77602e-19
1.7763e-19
1.77656e-19
1.77679e-19
1.77699e-19
1.77715e-19
1.77728e-19
1.77738e-19
1.77746e-19
1.77754e-19
1.77766e-19
1.77786e-19
1.77823e-19
1.77887e-19
1.77987e-19
1.78132e-19
1.78327e-19
1.78564e-19
1.7889e-19
1.73495e-19
1.75108e-19
1.76e-19
1.765e-19
1.76748e-19
1.7687e-19
1.76937e-19
1.76983e-19
1.77021e-19
1.77056e-19
1.7709e-19
1.77124e-19
1.77157e-19
1.7719e-19
1.77224e-19
1.77257e-19
1.7729e-19
1.77323e-19
1.77356e-19
1.77388e-19
1.77419e-19
1.77449e-19
1.77477e-19
1.77503e-19
1.77525e-19
1.77545e-19
1.77561e-19
1.77573e-19
1.77581e-19
1.77588e-19
1.77596e-19
1.77608e-19
1.77629e-19
1.7767e-19
1.77741e-19
1.77853e-19
1.78017e-19
1.78237e-19
1.78507e-19
1.78879e-19
1.73469e-19
1.74994e-19
1.75859e-19
1.76358e-19
1.76613e-19
1.76738e-19
1.76806e-19
1.76849e-19
1.76884e-19
1.76916e-19
1.76946e-19
1.76977e-19
1.77008e-19
1.7704e-19
1.77071e-19
1.77103e-19
1.77135e-19
1.77167e-19
1.77199e-19
1.7723e-19
1.77261e-19
1.7729e-19
1.77318e-19
1.77344e-19
1.77367e-19
1.77387e-19
1.77403e-19
1.77416e-19
1.77425e-19
1.77432e-19
1.7744e-19
1.77454e-19
1.77478e-19
1.77523e-19
1.77601e-19
1.77724e-19
1.77905e-19
1.78149e-19
1.78451e-19
1.78869e-19
1.73446e-19
1.74887e-19
1.75724e-19
1.76219e-19
1.76478e-19
1.76608e-19
1.76675e-19
1.76717e-19
1.76749e-19
1.76777e-19
1.76805e-19
1.76833e-19
1.76861e-19
1.7689e-19
1.76919e-19
1.76949e-19
1.7698e-19
1.7701e-19
1.77041e-19
1.77071e-19
1.77102e-19
1.77131e-19
1.77159e-19
1.77185e-19
1.77208e-19
1.77229e-19
1.77246e-19
1.7726e-19
1.7727e-19
1.77279e-19
1.77289e-19
1.77305e-19
1.77332e-19
1.77382e-19
1.77466e-19
1.776e-19
1.77797e-19
1.78064e-19
1.78397e-19
1.78858e-19
1.73425e-19
1.74787e-19
1.75594e-19
1.76085e-19
1.76347e-19
1.7648e-19
1.76549e-19
1.7659e-19
1.76619e-19
1.76645e-19
1.76669e-19
1.76694e-19
1.7672e-19
1.76746e-19
1.76773e-19
1.76801e-19
1.76829e-19
1.76858e-19
1.76888e-19
1.76917e-19
1.76946e-19
1.76975e-19
1.77002e-19
1.77029e-19
1.77053e-19
1.77074e-19
1.77092e-19
1.77108e-19
1.7712e-19
1.77131e-19
1.77144e-19
1.77163e-19
1.77193e-19
1.77247e-19
1.77338e-19
1.77481e-19
1.77692e-19
1.77981e-19
1.78343e-19
1.78848e-19
1.73406e-19
1.74694e-19
1.75472e-19
1.75955e-19
1.7622e-19
1.76357e-19
1.76428e-19
1.76468e-19
1.76497e-19
1.7652e-19
1.76542e-19
1.76564e-19
1.76587e-19
1.76611e-19
1.76636e-19
1.76661e-19
1.76688e-19
1.76715e-19
1.76742e-19
1.7677e-19
1.76798e-19
1.76826e-19
1.76853e-19
1.76878e-19
1.76903e-19
1.76925e-19
1.76944e-19
1.76961e-19
1.76976e-19
1.7699e-19
1.77005e-19
1.77027e-19
1.77061e-19
1.7712e-19
1.77216e-19
1.77367e-19
1.77591e-19
1.779e-19
1.78291e-19
1.78838e-19
1.73388e-19
1.74607e-19
1.75357e-19
1.75833e-19
1.761e-19
1.7624e-19
1.76314e-19
1.76355e-19
1.76383e-19
1.76405e-19
1.76425e-19
1.76445e-19
1.76466e-19
1.76487e-19
1.76509e-19
1.76533e-19
1.76557e-19
1.76582e-19
1.76607e-19
1.76633e-19
1.7666e-19
1.76686e-19
1.76712e-19
1.76737e-19
1.76761e-19
1.76783e-19
1.76804e-19
1.76822e-19
1.76839e-19
1.76855e-19
1.76874e-19
1.76899e-19
1.76936e-19
1.76999e-19
1.771e-19
1.77258e-19
1.77494e-19
1.77821e-19
1.7824e-19
1.78828e-19
1.73371e-19
1.74527e-19
1.75249e-19
1.75717e-19
1.75986e-19
1.7613e-19
1.76207e-19
1.76251e-19
1.76279e-19
1.763e-19
1.76319e-19
1.76338e-19
1.76356e-19
1.76376e-19
1.76396e-19
1.76417e-19
1.76439e-19
1.76461e-19
1.76485e-19
1.76509e-19
1.76533e-19
1.76558e-19
1.76582e-19
1.76606e-19
1.7663e-19
1.76652e-19
1.76673e-19
1.76692e-19
1.76711e-19
1.76729e-19
1.7675e-19
1.76778e-19
1.76819e-19
1.76885e-19
1.7699e-19
1.77155e-19
1.774e-19
1.77745e-19
1.78189e-19
1.78818e-19
1.73356e-19
1.74453e-19
1.75148e-19
1.75608e-19
1.75879e-19
1.76028e-19
1.76109e-19
1.76155e-19
1.76184e-19
1.76206e-19
1.76224e-19
1.76242e-19
1.76259e-19
1.76277e-19
1.76295e-19
1.76314e-19
1.76334e-19
1.76354e-19
1.76375e-19
1.76397e-19
1.7642e-19
1.76442e-19
1.76465e-19
1.76488e-19
1.7651e-19
1.76532e-19
1.76553e-19
1.76572e-19
1.76592e-19
1.76612e-19
1.76635e-19
1.76666e-19
1.76709e-19
1.76778e-19
1.76886e-19
1.77056e-19
1.77311e-19
1.77671e-19
1.7814e-19
1.78809e-19
1.73343e-19
1.74385e-19
1.75054e-19
1.75506e-19
1.75778e-19
1.75932e-19
1.76017e-19
1.76067e-19
1.76098e-19
1.76121e-19
1.76139e-19
1.76156e-19
1.76173e-19
1.76189e-19
1.76206e-19
1.76223e-19
1.76241e-19
1.7626e-19
1.76279e-19
1.76299e-19
1.76319e-19
1.7634e-19
1.76361e-19
1.76382e-19
1.76403e-19
1.76423e-19
1.76444e-19
1.76464e-19
1.76484e-19
1.76505e-19
1.7653e-19
1.76562e-19
1.76608e-19
1.76678e-19
1.76789e-19
1.76962e-19
1.77224e-19
1.77598e-19
1.7809e-19
1.78799e-19
1.7333e-19
1.74321e-19
1.74966e-19
1.7541e-19
1.75684e-19
1.75842e-19
1.75932e-19
1.75986e-19
1.7602e-19
1.76044e-19
1.76063e-19
1.7608e-19
1.76096e-19
1.76112e-19
1.76128e-19
1.76144e-19
1.7616e-19
1.76177e-19
1.76195e-19
1.76213e-19
1.76231e-19
1.7625e-19
1.76269e-19
1.76288e-19
1.76308e-19
1.76327e-19
1.76346e-19
1.76366e-19
1.76386e-19
1.76408e-19
1.76434e-19
1.76467e-19
1.76514e-19
1.76585e-19
1.76697e-19
1.76872e-19
1.7714e-19
1.77527e-19
1.78041e-19
1.78789e-19
1.73318e-19
1.74262e-19
1.74884e-19
1.75319e-19
1.75594e-19
1.75757e-19
1.75852e-19
1.7591e-19
1.75947e-19
1.75973e-19
1.75993e-19
1.76011e-19
1.76027e-19
1.76043e-19
1.76058e-19
1.76073e-19
1.76089e-19
1.76104e-19
1.7612e-19
1.76137e-19
1.76154e-19
1.76171e-19
1.76188e-19
1.76206e-19
1.76224e-19
1.76242e-19
1.7626e-19
1.76279e-19
1.76299e-19
1.7632e-19
1.76346e-19
1.7638e-19
1.76427e-19
1.76498e-19
1.7661e-19
1.76786e-19
1.77057e-19
1.77456e-19
1.77992e-19
1.7878e-19
1.73307e-19
1.74206e-19
1.74805e-19
1.75232e-19
1.75507e-19
1.75675e-19
1.75775e-19
1.75837e-19
1.75877e-19
1.75905e-19
1.75927e-19
1.75946e-19
1.75962e-19
1.75978e-19
1.75993e-19
1.76008e-19
1.76023e-19
1.76038e-19
1.76054e-19
1.76069e-19
1.76085e-19
1.761e-19
1.76117e-19
1.76133e-19
1.76149e-19
1.76166e-19
1.76183e-19
1.76201e-19
1.7622e-19
1.76242e-19
1.76267e-19
1.763e-19
1.76347e-19
1.76417e-19
1.76527e-19
1.76702e-19
1.76976e-19
1.77385e-19
1.77943e-19
1.7877e-19
1.73296e-19
1.74153e-19
1.7473e-19
1.75149e-19
1.75424e-19
1.75595e-19
1.75699e-19
1.75765e-19
1.75808e-19
1.75839e-19
1.75862e-19
1.75882e-19
1.75899e-19
1.75915e-19
1.75931e-19
1.75946e-19
1.75961e-19
1.75976e-19
1.75991e-19
1.76006e-19
1.76021e-19
1.76036e-19
1.76051e-19
1.76067e-19
1.76082e-19
1.76098e-19
1.76114e-19
1.76131e-19
1.7615e-19
1.7617e-19
1.76195e-19
1.76227e-19
1.76271e-19
1.76339e-19
1.76447e-19
1.7662e-19
1.76896e-19
1.77314e-19
1.77892e-19
1.78759e-19
1.73286e-19
1.74102e-19
1.74658e-19
1.75067e-19
1.75341e-19
1.75515e-19
1.75623e-19
1.75692e-19
1.75738e-19
1.7577e-19
1.75795e-19
1.75816e-19
1.75834e-19
1.75851e-19
1.75868e-19
1.75883e-19
1.75899e-19
1.75914e-19
1.7593e-19
1.75945e-19
1.7596e-19
1.75975e-19
1.7599e-19
1.76005e-19
1.7602e-19
1.76035e-19
1.7605e-19
1.76067e-19
1.76084e-19
1.76103e-19
1.76127e-19
1.76157e-19
1.762e-19
1.76264e-19
1.76368e-19
1.76538e-19
1.76815e-19
1.77241e-19
1.7784e-19
1.78749e-19
1.73277e-19
1.74053e-19
1.74587e-19
1.74986e-19
1.75258e-19
1.75434e-19
1.75545e-19
1.75616e-19
1.75664e-19
1.75698e-19
1.75724e-19
1.75745e-19
1.75765e-19
1.75783e-19
1.758e-19
1.75817e-19
1.75833e-19
1.7585e-19
1.75866e-19
1.75882e-19
1.75897e-19
1.75913e-19
1.75928e-19
1.75943e-19
1.75958e-19
1.75973e-19
1.75988e-19
1.76004e-19
1.76021e-19
1.76039e-19
1.76061e-19
1.76089e-19
1.76129e-19
1.7619e-19
1.7629e-19
1.76456e-19
1.76732e-19
1.77165e-19
1.77786e-19
1.78738e-19
1.73267e-19
1.74005e-19
1.74518e-19
1.74906e-19
1.75174e-19
1.75351e-19
1.75463e-19
1.75536e-19
1.75585e-19
1.75619e-19
1.75646e-19
1.75668e-19
1.75688e-19
1.75707e-19
1.75725e-19
1.75743e-19
1.75761e-19
1.75779e-19
1.75796e-19
1.75813e-19
1.7583e-19
1.75847e-19
1.75863e-19
1.75879e-19
1.75894e-19
1.7591e-19
1.75925e-19
1.75941e-19
1.75957e-19
1.75974e-19
1.75995e-19
1.76021e-19
1.76058e-19
1.76115e-19
1.7621e-19
1.76372e-19
1.76646e-19
1.77087e-19
1.77729e-19
1.78726e-19
1.73258e-19
1.73957e-19
1.74448e-19
1.74824e-19
1.75088e-19
1.75264e-19
1.75377e-19
1.7545e-19
1.75499e-19
1.75533e-19
1.75559e-19
1.75582e-19
1.75602e-19
1.75622e-19
1.75641e-19
1.75661e-19
1.7568e-19
1.75699e-19
1.75719e-19
1.75737e-19
1.75756e-19
1.75774e-19
1.75791e-19
1.75808e-19
1.75825e-19
1.75841e-19
1.75857e-19
1.75873e-19
1.75889e-19
1.75906e-19
1.75926e-19
1.7595e-19
1.75985e-19
1.76038e-19
1.76127e-19
1.76284e-19
1.76556e-19
1.77004e-19
1.77668e-19
1.78714e-19
1.73249e-19
1.7391e-19
1.74378e-19
1.74741e-19
1.74999e-19
1.75172e-19
1.75285e-19
1.75357e-19
1.75405e-19
1.75438e-19
1.75464e-19
1.75486e-19
1.75506e-19
1.75527e-19
1.75547e-19
1.75567e-19
1.75588e-19
1.75609e-19
1.7563e-19
1.75651e-19
1.75671e-19
1.75691e-19
1.7571e-19
1.75729e-19
1.75747e-19
1.75765e-19
1.75782e-19
1.75799e-19
1.75815e-19
1.75833e-19
1.75851e-19
1.75874e-19
1.75906e-19
1.75955e-19
1.7604e-19
1.76191e-19
1.76462e-19
1.76916e-19
1.77603e-19
1.787e-19
1.7324e-19
1.73863e-19
1.74307e-19
1.74656e-19
1.74906e-19
1.75076e-19
1.75186e-19
1.75257e-19
1.75303e-19
1.75335e-19
1.75359e-19
1.7538e-19
1.754e-19
1.7542e-19
1.75441e-19
1.75462e-19
1.75485e-19
1.75507e-19
1.7553e-19
1.75553e-19
1.75575e-19
1.75597e-19
1.75618e-19
1.75639e-19
1.75659e-19
1.75678e-19
1.75697e-19
1.75715e-19
1.75733e-19
1.7575e-19
1.75769e-19
1.75791e-19
1.75821e-19
1.75867e-19
1.75947e-19
1.76093e-19
1.76361e-19
1.76823e-19
1.77533e-19
1.78686e-19
1.7323e-19
1.73815e-19
1.74235e-19
1.74568e-19
1.74809e-19
1.74974e-19
1.75081e-19
1.75149e-19
1.75193e-19
1.75222e-19
1.75245e-19
1.75264e-19
1.75283e-19
1.75303e-19
1.75323e-19
1.75346e-19
1.75369e-19
1.75393e-19
1.75417e-19
1.75442e-19
1.75466e-19
1.7549e-19
1.75514e-19
1.75537e-19
1.75559e-19
1.7558e-19
1.75601e-19
1.7562e-19
1.7564e-19
1.75658e-19
1.75678e-19
1.757e-19
1.75728e-19
1.75771e-19
1.75847e-19
1.75989e-19
1.76255e-19
1.76723e-19
1.77458e-19
1.7867e-19
1.73221e-19
1.73767e-19
1.74162e-19
1.74477e-19
1.74708e-19
1.74866e-19
1.74969e-19
1.75034e-19
1.75075e-19
1.75102e-19
1.75122e-19
1.75139e-19
1.75157e-19
1.75175e-19
1.75195e-19
1.75218e-19
1.75242e-19
1.75266e-19
1.75292e-19
1.75318e-19
1.75345e-19
1.75371e-19
1.75397e-19
1.75422e-19
1.75446e-19
1.7547e-19
1.75492e-19
1.75514e-19
1.75535e-19
1.75556e-19
1.75576e-19
1.75599e-19
1.75627e-19
1.75668e-19
1.75741e-19
1.75878e-19
1.76141e-19
1.76616e-19
1.77377e-19
1.78653e-19
1.73212e-19
1.73719e-19
1.74087e-19
1.74383e-19
1.74602e-19
1.74753e-19
1.74851e-19
1.74912e-19
1.7495e-19
1.74974e-19
1.74991e-19
1.75006e-19
1.75021e-19
1.75039e-19
1.75058e-19
1.7508e-19
1.75104e-19
1.7513e-19
1.75156e-19
1.75184e-19
1.75212e-19
1.7524e-19
1.75267e-19
1.75294e-19
1.75321e-19
1.75347e-19
1.75372e-19
1.75396e-19
1.7542e-19
1.75442e-19
1.75465e-19
1.75489e-19
1.75517e-19
1.75558e-19
1.75628e-19
1.75761e-19
1.76021e-19
1.76502e-19
1.7729e-19
1.78634e-19
1.73203e-19
1.73669e-19
1.7401e-19
1.74286e-19
1.74491e-19
1.74634e-19
1.74727e-19
1.74784e-19
1.74817e-19
1.74839e-19
1.74853e-19
1.74866e-19
1.74879e-19
1.74895e-19
1.74913e-19
1.74934e-19
1.74958e-19
1.74984e-19
1.75011e-19
1.7504e-19
1.75069e-19
1.75098e-19
1.75128e-19
1.75157e-19
1.75185e-19
1.75213e-19
1.75241e-19
1.75267e-19
1.75293e-19
1.75319e-19
1.75344e-19
1.7537e-19
1.754e-19
1.75441e-19
1.75509e-19
1.75638e-19
1.75895e-19
1.76381e-19
1.77196e-19
1.78614e-19
1.73193e-19
1.73619e-19
1.73931e-19
1.74186e-19
1.74377e-19
1.7451e-19
1.74596e-19
1.74649e-19
1.74679e-19
1.74697e-19
1.7471e-19
1.7472e-19
1.74732e-19
1.74746e-19
1.74763e-19
1.74783e-19
1.74807e-19
1.74832e-19
1.7486e-19
1.74889e-19
1.74919e-19
1.74949e-19
1.7498e-19
1.75011e-19
1.75041e-19
1.75071e-19
1.75101e-19
1.7513e-19
1.75159e-19
1.75187e-19
1.75215e-19
1.75244e-19
1.75276e-19
1.75318e-19
1.75384e-19
1.75511e-19
1.75764e-19
1.76253e-19
1.77095e-19
1.78592e-19
1.73184e-19
1.73568e-19
1.73851e-19
1.74083e-19
1.74258e-19
1.7438e-19
1.7446e-19
1.74508e-19
1.74535e-19
1.74551e-19
1.74562e-19
1.74571e-19
1.74581e-19
1.74594e-19
1.7461e-19
1.7463e-19
1.74653e-19
1.74678e-19
1.74705e-19
1.74735e-19
1.74765e-19
1.74796e-19
1.74828e-19
1.7486e-19
1.74892e-19
1.74924e-19
1.74956e-19
1.74987e-19
1.75018e-19
1.7505e-19
1.75081e-19
1.75113e-19
1.75148e-19
1.75191e-19
1.75257e-19
1.7538e-19
1.75628e-19
1.76119e-19
1.76987e-19
1.78568e-19
1.73174e-19
1.73516e-19
1.73768e-19
1.73977e-19
1.74135e-19
1.74245e-19
1.74318e-19
1.74361e-19
1.74386e-19
1.74401e-19
1.74411e-19
1.74419e-19
1.74429e-19
1.74442e-19
1.74457e-19
1.74477e-19
1.74499e-19
1.74525e-19
1.74552e-19
1.74582e-19
1.74612e-19
1.74644e-19
1.74676e-19
1.74709e-19
1.74742e-19
1.74776e-19
1.74809e-19
1.74843e-19
1.74877e-19
1.7491e-19
1.74945e-19
1.7498e-19
1.75018e-19
1.75064e-19
1.7513e-19
1.75249e-19
1.75491e-19
1.75981e-19
1.76873e-19
1.78541e-19
1.73164e-19
1.73463e-19
1.73684e-19
1.73868e-19
1.74008e-19
1.74106e-19
1.74171e-19
1.74211e-19
1.74234e-19
1.74248e-19
1.74259e-19
1.74268e-19
1.74279e-19
1.74292e-19
1.74309e-19
1.74329e-19
1.74351e-19
1.74377e-19
1.74405e-19
1.74434e-19
1.74465e-19
1.74497e-19
1.7453e-19
1.74563e-19
1.74598e-19
1.74632e-19
1.74667e-19
1.74702e-19
1.74738e-19
1.74774e-19
1.74811e-19
1.7485e-19
1.74891e-19
1.74939e-19
1.75006e-19
1.75121e-19
1.75355e-19
1.7584e-19
1.76754e-19
1.78513e-19
1.73154e-19
1.7341e-19
1.73599e-19
1.73757e-19
1.73877e-19
1.73963e-19
1.74021e-19
1.74058e-19
1.74081e-19
1.74097e-19
1.7411e-19
1.74122e-19
1.74135e-19
1.7415e-19
1.74169e-19
1.7419e-19
1.74214e-19
1.7424e-19
1.74268e-19
1.74298e-19
1.74329e-19
1.74362e-19
1.74395e-19
1.74429e-19
1.74463e-19
1.74499e-19
1.74535e-19
1.74571e-19
1.74609e-19
1.74647e-19
1.74686e-19
1.74727e-19
1.74771e-19
1.74822e-19
1.74889e-19
1.75e-19
1.75223e-19
1.757e-19
1.76629e-19
1.78483e-19
1.73144e-19
1.73356e-19
1.73513e-19
1.73645e-19
1.73746e-19
1.7382e-19
1.73872e-19
1.73908e-19
1.73933e-19
1.73952e-19
1.73969e-19
1.73985e-19
1.74003e-19
1.74022e-19
1.74043e-19
1.74067e-19
1.74093e-19
1.7412e-19
1.74149e-19
1.74179e-19
1.74211e-19
1.74243e-19
1.74277e-19
1.74311e-19
1.74346e-19
1.74382e-19
1.74419e-19
1.74456e-19
1.74495e-19
1.74535e-19
1.74576e-19
1.74619e-19
1.74666e-19
1.74718e-19
1.74785e-19
1.74891e-19
1.75103e-19
1.75564e-19
1.76504e-19
1.78452e-19
1.73135e-19
1.73304e-19
1.7343e-19
1.73537e-19
1.73621e-19
1.73685e-19
1.73733e-19
1.7377e-19
1.73798e-19
1.73823e-19
1.73845e-19
1.73867e-19
1.7389e-19
1.73914e-19
1.73939e-19
1.73965e-19
1.73993e-19
1.74022e-19
1.74052e-19
1.74083e-19
1.74116e-19
1.74148e-19
1.74182e-19
1.74217e-19
1.74252e-19
1.74289e-19
1.74326e-19
1.74364e-19
1.74404e-19
1.74445e-19
1.74488e-19
1.74532e-19
1.7458e-19
1.74634e-19
1.747e-19
1.74802e-19
1.74999e-19
1.75441e-19
1.76382e-19
1.7842e-19
1.73126e-19
1.73259e-19
1.73357e-19
1.73442e-19
1.73513e-19
1.7357e-19
1.73617e-19
1.73656e-19
1.7369e-19
1.7372e-19
1.73749e-19
1.73777e-19
1.73805e-19
1.73833e-19
1.73862e-19
1.73891e-19
1.73921e-19
1.73952e-19
1.73983e-19
1.74015e-19
1.74048e-19
1.74081e-19
1.74115e-19
1.7415e-19
1.74186e-19
1.74223e-19
1.74261e-19
1.743e-19
1.7434e-19
1.74382e-19
1.74426e-19
1.74472e-19
1.74521e-19
1.74575e-19
1.74642e-19
1.74739e-19
1.74923e-19
1.75341e-19
1.76273e-19
1.7839e-19
1.7312e-19
1.73226e-19
1.73305e-19
1.73376e-19
1.73437e-19
1.73491e-19
1.73538e-19
1.7358e-19
1.73619e-19
1.73655e-19
1.73689e-19
1.73721e-19
1.73753e-19
1.73785e-19
1.73816e-19
1.73848e-19
1.73879e-19
1.73911e-19
1.73943e-19
1.73976e-19
1.74009e-19
1.74043e-19
1.74078e-19
1.74113e-19
1.74149e-19
1.74187e-19
1.74225e-19
1.74265e-19
1.74306e-19
1.74349e-19
1.74393e-19
1.7444e-19
1.7449e-19
1.74546e-19
1.74613e-19
1.74711e-19
1.74889e-19
1.75289e-19
1.76203e-19
1.78368e-19
1.73122e-19
1.7321e-19
1.73281e-19
1.73346e-19
1.73404e-19
1.73457e-19
1.73505e-19
1.73549e-19
1.7359e-19
1.73628e-19
1.73665e-19
1.737e-19
1.73734e-19
1.73767e-19
1.73799e-19
1.73832e-19
1.73864e-19
1.73896e-19
1.73929e-19
1.73962e-19
1.73996e-19
1.7403e-19
1.74065e-19
1.74101e-19
1.74137e-19
1.74175e-19
1.74214e-19
1.74254e-19
1.74296e-19
1.74339e-19
1.74384e-19
1.74432e-19
1.74483e-19
1.7454e-19
1.74611e-19
1.74714e-19
1.74899e-19
1.753e-19
1.76198e-19
1.78217e-19
2.71315e-19
2.74873e-19
2.76249e-19
2.76819e-19
2.77076e-19
2.77223e-19
2.77327e-19
2.77415e-19
2.77494e-19
2.77568e-19
2.77639e-19
2.77706e-19
2.77772e-19
2.77835e-19
2.77896e-19
2.77955e-19
2.78013e-19
2.78069e-19
2.78125e-19
2.78179e-19
2.78232e-19
2.78285e-19
2.78337e-19
2.78389e-19
2.78441e-19
2.78493e-19
2.78546e-19
2.78599e-19
2.78654e-19
2.7871e-19
2.78769e-19
2.78831e-19
2.78898e-19
2.78969e-19
2.79046e-19
2.79131e-19
2.79225e-19
2.79329e-19
2.79444e-19
2.79601e-19
2.70465e-19
7.98214e-19
8.91714e-19
8.97989e-19
8.975e-19
8.96207e-19
8.95487e-19
8.95158e-19
8.95081e-19
8.95129e-19
8.95257e-19
8.95423e-19
8.95595e-19
8.9578e-19
8.95997e-19
8.96202e-19
8.9639e-19
8.96565e-19
8.96729e-19
8.96851e-19
8.96934e-19
8.96949e-19
8.96875e-19
8.96528e-19
8.96018e-19
8.95394e-19
8.94712e-19
8.9407e-19
8.93694e-19
8.93685e-19
8.94291e-19
8.96453e-19
9.00774e-19
9.04083e-19
9.08266e-19
9.13132e-19
9.15898e-19
9.08338e-19
7.99707e-19
2.79633e-19
2.70464e-19
9.10077e-19
1.02224e-18
1.0286e-18
1.02771e-18
1.02741e-18
1.0273e-18
1.02739e-18
1.02756e-18
1.02777e-18
1.028e-18
1.02824e-18
1.02842e-18
1.02861e-18
1.02888e-18
1.02912e-18
1.02932e-18
1.02951e-18
1.02971e-18
1.02984e-18
1.02995e-18
1.03007e-18
1.03019e-18
1.03022e-18
1.03022e-18
1.03021e-18
1.03019e-18
1.03022e-18
1.03031e-18
1.03029e-18
1.03049e-18
1.03206e-18
1.03365e-18
1.03617e-18
1.03843e-18
1.04191e-18
1.04211e-18
1.02611e-18
8.68851e-19
2.79633e-19
2.70464e-19
9.12849e-19
1.0313e-18
1.03628e-18
1.03648e-18
1.03654e-18
1.03674e-18
1.03694e-18
1.03717e-18
1.03741e-18
1.03764e-18
1.03788e-18
1.0381e-18
1.03832e-18
1.03857e-18
1.03881e-18
1.039e-18
1.03917e-18
1.03938e-18
1.03954e-18
1.03966e-18
1.0399e-18
1.04008e-18
1.04023e-18
1.04035e-18
1.04045e-18
1.04049e-18
1.04047e-18
1.04023e-18
1.03961e-18
1.03993e-18
1.04055e-18
1.04137e-18
1.04358e-18
1.04403e-18
1.04787e-18
1.04752e-18
1.03084e-18
8.71166e-19
2.79633e-19
2.70464e-19
9.07456e-19
1.02984e-18
1.0331e-18
1.03628e-18
1.0363e-18
1.03678e-18
1.03698e-18
1.03722e-18
1.03744e-18
1.03766e-18
1.03788e-18
1.03809e-18
1.03832e-18
1.03856e-18
1.03879e-18
1.03902e-18
1.03924e-18
1.03948e-18
1.03969e-18
1.03986e-18
1.04011e-18
1.0403e-18
1.04047e-18
1.0406e-18
1.04067e-18
1.04065e-18
1.0404e-18
1.03963e-18
1.03898e-18
1.03919e-18
1.03841e-18
1.03729e-18
1.04096e-18
1.04254e-18
1.04533e-18
1.04729e-18
1.02887e-18
8.70344e-19
2.79633e-19
2.70464e-19
8.99356e-19
1.02467e-18
1.03348e-18
1.03377e-18
1.0351e-18
1.03578e-18
1.03619e-18
1.03646e-18
1.0367e-18
1.03692e-18
1.03714e-18
1.03736e-18
1.03758e-18
1.03781e-18
1.03805e-18
1.03828e-18
1.03852e-18
1.03877e-18
1.03902e-18
1.03926e-18
1.03948e-18
1.03968e-18
1.03987e-18
1.03997e-18
1.04002e-18
1.03991e-18
1.0395e-18
1.03874e-18
1.03828e-18
1.03748e-18
1.03532e-18
1.03512e-18
1.03527e-18
1.04045e-18
1.04119e-18
1.04539e-18
1.02804e-18
8.69609e-19
2.79633e-19
2.70464e-19
8.93103e-19
1.02051e-18
1.03298e-18
1.03197e-18
1.03414e-18
1.0348e-18
1.03531e-18
1.03562e-18
1.03587e-18
1.0361e-18
1.03631e-18
1.03653e-18
1.03674e-18
1.03697e-18
1.0372e-18
1.03744e-18
1.03769e-18
1.03796e-18
1.03822e-18
1.03848e-18
1.0387e-18
1.03887e-18
1.03914e-18
1.03925e-18
1.03929e-18
1.03915e-18
1.03857e-18
1.03788e-18
1.03709e-18
1.03597e-18
1.03321e-18
1.0341e-18
1.03326e-18
1.03553e-18
1.03802e-18
1.0418e-18
1.0264e-18
8.69365e-19
2.79632e-19
2.70464e-19
8.89045e-19
1.01851e-18
1.02915e-18
1.03159e-18
1.03246e-18
1.03398e-18
1.03438e-18
1.03477e-18
1.03502e-18
1.03525e-18
1.03546e-18
1.03567e-18
1.03588e-18
1.0361e-18
1.03633e-18
1.03657e-18
1.03682e-18
1.03709e-18
1.03736e-18
1.03764e-18
1.03787e-18
1.03803e-18
1.03825e-18
1.03839e-18
1.03843e-18
1.03832e-18
1.0378e-18
1.03707e-18
1.03602e-18
1.03497e-18
1.03304e-18
1.03165e-18
1.03104e-18
1.0321e-18
1.03447e-18
1.03892e-18
1.02518e-18
8.69526e-19
2.79632e-19
2.70464e-19
8.85344e-19
1.01513e-18
1.02517e-18
1.03049e-18
1.03235e-18
1.03289e-18
1.03349e-18
1.0339e-18
1.03418e-18
1.03441e-18
1.03461e-18
1.03482e-18
1.03502e-18
1.03523e-18
1.03545e-18
1.03568e-18
1.03592e-18
1.03618e-18
1.03646e-18
1.03674e-18
1.03698e-18
1.03717e-18
1.03731e-18
1.03749e-18
1.03754e-18
1.03746e-18
1.03706e-18
1.03632e-18
1.03524e-18
1.03401e-18
1.03243e-18
1.03029e-18
1.02937e-18
1.02949e-18
1.03155e-18
1.03547e-18
1.02423e-18
8.70077e-19
2.79632e-19
2.70464e-19
8.82419e-19
1.0135e-18
1.02471e-18
1.02904e-18
1.0316e-18
1.03211e-18
1.03264e-18
1.03308e-18
1.03338e-18
1.0336e-18
1.03379e-18
1.03399e-18
1.03417e-18
1.03437e-18
1.03458e-18
1.0348e-18
1.03503e-18
1.03527e-18
1.03554e-18
1.03581e-18
1.03607e-18
1.03626e-18
1.03638e-18
1.03659e-18
1.03666e-18
1.03661e-18
1.03624e-18
1.03557e-18
1.03453e-18
1.03335e-18
1.03182e-18
1.02941e-18
1.02812e-18
1.02754e-18
1.02888e-18
1.03139e-18
1.02357e-18
8.70923e-19
2.79632e-19
2.70464e-19
8.79984e-19
1.01221e-18
1.0241e-18
1.02773e-18
1.02968e-18
1.03148e-18
1.03196e-18
1.03228e-18
1.03262e-18
1.03283e-18
1.03302e-18
1.0332e-18
1.03336e-18
1.03356e-18
1.03375e-18
1.03395e-18
1.03416e-18
1.03439e-18
1.03464e-18
1.0349e-18
1.03516e-18
1.03536e-18
1.03549e-18
1.03567e-18
1.03576e-18
1.03573e-18
1.03543e-18
1.03483e-18
1.03388e-18
1.03271e-18
1.03135e-18
1.02894e-18
1.02755e-18
1.02678e-18
1.02697e-18
1.02832e-18
1.02242e-18
8.7225e-19
2.79632e-19
2.70464e-19
8.77838e-19
1.01104e-18
1.02325e-18
1.0267e-18
1.02919e-18
1.03059e-18
1.03141e-18
1.03165e-18
1.03197e-18
1.03213e-18
1.03231e-18
1.0325e-18
1.03259e-18
1.0328e-18
1.03297e-18
1.03316e-18
1.03335e-18
1.03357e-18
1.03379e-18
1.03402e-18
1.03427e-18
1.03448e-18
1.03463e-18
1.03478e-18
1.03489e-18
1.03487e-18
1.03462e-18
1.03411e-18
1.03329e-18
1.03202e-18
1.03095e-18
1.0286e-18
1.02714e-18
1.0264e-18
1.02637e-18
1.0274e-18
1.02057e-18
8.73599e-19
2.79632e-19
2.70464e-19
8.75534e-19
1.0102e-18
1.0228e-18
1.02646e-18
1.02862e-18
1.02968e-18
1.0305e-18
1.03112e-18
1.03131e-18
1.0315e-18
1.03167e-18
1.03181e-18
1.03196e-18
1.03212e-18
1.03228e-18
1.03246e-18
1.0326e-18
1.03281e-18
1.033e-18
1.03322e-18
1.03343e-18
1.03366e-18
1.03379e-18
1.03395e-18
1.03406e-18
1.03403e-18
1.03384e-18
1.03338e-18
1.03273e-18
1.03126e-18
1.03071e-18
1.0284e-18
1.02686e-18
1.02584e-18
1.02597e-18
1.02707e-18
1.01942e-18
8.751e-19
2.79632e-19
2.70464e-19
8.73558e-19
1.00946e-18
1.02226e-18
1.02578e-18
1.02776e-18
1.02908e-18
1.02991e-18
1.03042e-18
1.0307e-18
1.03091e-18
1.03108e-18
1.0312e-18
1.03141e-18
1.03153e-18
1.03167e-18
1.03181e-18
1.03197e-18
1.03213e-18
1.03231e-18
1.03249e-18
1.03268e-18
1.03288e-18
1.03301e-18
1.03317e-18
1.03326e-18
1.03325e-18
1.03309e-18
1.03269e-18
1.03216e-18
1.03096e-18
1.03025e-18
1.02835e-18
1.02687e-18
1.02586e-18
1.02594e-18
1.02636e-18
1.01843e-18
8.76691e-19
2.79632e-19
2.70464e-19
8.72069e-19
1.00883e-18
1.0218e-18
1.02526e-18
1.02722e-18
1.02843e-18
1.02932e-18
1.02984e-18
1.03016e-18
1.03039e-18
1.03057e-18
1.03071e-18
1.03087e-18
1.03099e-18
1.03112e-18
1.03125e-18
1.03141e-18
1.03154e-18
1.03169e-18
1.03185e-18
1.03202e-18
1.03217e-18
1.03232e-18
1.03245e-18
1.03253e-18
1.03254e-18
1.03241e-18
1.03209e-18
1.03161e-18
1.03091e-18
1.02973e-18
1.0283e-18
1.02693e-18
1.02598e-18
1.02608e-18
1.02627e-18
1.01809e-18
8.78469e-19
2.79632e-19
2.70463e-19
8.70899e-19
1.00823e-18
1.02131e-18
1.02469e-18
1.02661e-18
1.02802e-18
1.02889e-18
1.02934e-18
1.02968e-18
1.02993e-18
1.03012e-18
1.03027e-18
1.03042e-18
1.03054e-18
1.03066e-18
1.03078e-18
1.03091e-18
1.03103e-18
1.03116e-18
1.03129e-18
1.03143e-18
1.03157e-18
1.0317e-18
1.03181e-18
1.03189e-18
1.03191e-18
1.03181e-18
1.03157e-18
1.03109e-18
1.03062e-18
1.02954e-18
1.02835e-18
1.02706e-18
1.026e-18
1.02606e-18
1.02671e-18
1.0181e-18
8.8023e-19
2.79632e-19
2.70463e-19
8.6996e-19
1.00759e-18
1.02077e-18
1.02411e-18
1.02616e-18
1.02745e-18
1.02813e-18
1.02878e-18
1.02919e-18
1.02948e-18
1.0297e-18
1.02987e-18
1.03001e-18
1.03014e-18
1.03025e-18
1.03036e-18
1.03047e-18
1.03058e-18
1.03069e-18
1.03081e-18
1.03093e-18
1.03105e-18
1.03116e-18
1.03126e-18
1.03133e-18
1.03135e-18
1.03127e-18
1.03108e-18
1.03067e-18
1.03022e-18
1.02937e-18
1.02853e-18
1.02743e-18
1.02643e-18
1.02625e-18
1.02722e-18
1.01844e-18
8.81483e-19
2.79632e-19
2.70463e-19
8.6909e-19
1.00689e-18
1.02008e-18
1.02329e-18
1.02527e-18
1.02657e-18
1.02752e-18
1.02823e-18
1.02871e-18
1.02905e-18
1.0293e-18
1.02949e-18
1.02964e-18
1.02977e-18
1.02988e-18
1.02999e-18
1.03009e-18
1.03019e-18
1.03029e-18
1.03039e-18
1.0305e-18
1.0306e-18
1.0307e-18
1.03079e-18
1.03085e-18
1.03088e-18
1.03083e-18
1.03071e-18
1.0305e-18
1.03008e-18
1.02938e-18
1.02835e-18
1.02739e-18
1.02675e-18
1.02656e-18
1.0271e-18
1.01898e-18
8.83576e-19
2.79632e-19
2.70463e-19
8.67888e-19
1.00614e-18
1.01928e-18
1.02238e-18
1.02436e-18
1.02579e-18
1.02685e-18
1.02764e-18
1.02821e-18
1.02861e-18
1.02891e-18
1.02912e-18
1.02929e-18
1.02942e-18
1.02953e-18
1.02964e-18
1.02973e-18
1.02983e-18
1.02992e-18
1.03001e-18
1.03011e-18
1.0302e-18
1.03029e-18
1.03036e-18
1.03042e-18
1.03046e-18
1.03043e-18
1.03033e-18
1.03014e-18
1.02978e-18
1.02923e-18
1.02848e-18
1.02772e-18
1.0271e-18
1.02691e-18
1.02719e-18
1.01915e-18
8.8498e-19
2.79631e-19
2.70463e-19
8.6676e-19
1.00529e-18
1.01836e-18
1.02134e-18
1.02335e-18
1.02489e-18
1.02609e-18
1.027e-18
1.02766e-18
1.02814e-18
1.02849e-18
1.02873e-18
1.02892e-18
1.02906e-18
1.02918e-18
1.02929e-18
1.02938e-18
1.02948e-18
1.02956e-18
1.02965e-18
1.02974e-18
1.02983e-18
1.02991e-18
1.02998e-18
1.03004e-18
1.03007e-18
1.03007e-18
1.03e-18
1.02985e-18
1.02957e-18
1.02914e-18
1.02856e-18
1.02792e-18
1.0274e-18
1.02724e-18
1.02745e-18
1.01935e-18
8.8599e-19
2.79631e-19
2.70463e-19
8.65491e-19
1.0043e-18
1.01736e-18
1.0202e-18
1.02222e-18
1.02386e-18
1.02521e-18
1.02629e-18
1.02707e-18
1.02764e-18
1.02804e-18
1.02832e-18
1.02852e-18
1.02868e-18
1.02881e-18
1.02892e-18
1.02902e-18
1.02912e-18
1.02921e-18
1.02929e-18
1.02938e-18
1.02946e-18
1.02954e-18
1.02961e-18
1.02967e-18
1.02971e-18
1.02972e-18
1.02967e-18
1.02956e-18
1.02935e-18
1.02902e-18
1.02858e-18
1.02805e-18
1.02761e-18
1.02748e-18
1.02757e-18
1.01959e-18
8.86893e-19
2.79631e-19
2.70463e-19
8.64236e-19
1.00349e-18
1.01619e-18
1.01894e-18
1.02097e-18
1.02269e-18
1.02427e-18
1.02556e-18
1.02642e-18
1.02706e-18
1.02754e-18
1.02786e-18
1.02809e-18
1.02826e-18
1.02841e-18
1.02852e-18
1.02863e-18
1.02873e-18
1.02882e-18
1.02891e-18
1.029e-18
1.02908e-18
1.02916e-18
1.02923e-18
1.0293e-18
1.02934e-18
1.02936e-18
1.02934e-18