/*--------------------------------*- C++ -*----------------------------------*\
  =========                 |
  \\      /  F ield         | OpenFOAM: The Open Source CFD Toolbox
   \\    /   O peration     | Website:  https://openfoam.org
    \\  /    A nd           | Version:  12
     \\/     M anipulation  |
\*---------------------------------------------------------------------------*/
FoamFile
{
    format      ascii;
    class       volScalarField;
    location    "500";
    object      omega;
}
// * * * * * * * * * * * * * * * * * * * * * * * * * * * * * * * * * * * * * //

dimensions      [0 0 -1 0 0 0 0];

internalField   nonuniform List<scalar> 
8000
(
1277.54
1263.13
1256.6
1253.67
1252.33
1251.6
1251.1
1250.69
1250.33
1249.99
1249.67
1249.37
1249.07
1248.79
1248.51
1248.24
1247.98
1247.73
1247.48
1247.24
1247
1246.76
1246.53
1246.3
1246.07
1245.83
1245.6
1245.36
1245.12
1244.87
1244.61
1244.33
1244.04
1243.72
1243.37
1242.99
1242.56
1242.09
1241.57
1240.92
1278.61
1263.17
1256.52
1253.6
1252.31
1251.62
1251.14
1250.75
1250.39
1250.06
1249.75
1249.44
1249.15
1248.87
1248.6
1248.33
1248.08
1247.83
1247.58
1247.34
1247.1
1246.87
1246.64
1246.41
1246.18
1245.96
1245.73
1245.51
1245.28
1245.05
1244.8
1244.55
1244.28
1243.97
1243.63
1243.24
1242.79
1242.27
1241.69
1240.9
1278.76
1263.68
1256.91
1253.86
1252.53
1251.83
1251.36
1250.97
1250.63
1250.3
1249.99
1249.7
1249.41
1249.14
1248.87
1248.61
1248.35
1248.1
1247.86
1247.62
1247.39
1247.16
1246.94
1246.72
1246.5
1246.29
1246.09
1245.89
1245.69
1245.49
1245.29
1245.08
1244.84
1244.57
1244.23
1243.82
1243.31
1242.68
1241.94
1240.95
1278.97
1264.48
1257.65
1254.43
1252.99
1252.26
1251.79
1251.41
1251.07
1250.76
1250.45
1250.16
1249.88
1249.61
1249.35
1249.09
1248.84
1248.59
1248.35
1248.12
1247.89
1247.67
1247.45
1247.24
1247.04
1246.86
1246.68
1246.51
1246.35
1246.2
1246.05
1245.88
1245.69
1245.44
1245.1
1244.64
1244.03
1243.24
1242.29
1241.01
1279.2
1265.36
1258.56
1255.19
1253.65
1252.89
1252.41
1252.04
1251.71
1251.4
1251.11
1250.83
1250.56
1250.29
1250.03
1249.78
1249.53
1249.28
1249.05
1248.81
1248.59
1248.37
1248.16
1247.97
1247.79
1247.62
1247.47
1247.34
1247.22
1247.11
1247
1246.88
1246.71
1246.48
1246.12
1245.59
1244.84
1243.87
1242.69
1241.08
1279.42
1266.28
1259.56
1256.08
1254.45
1253.65
1253.17
1252.81
1252.5
1252.21
1251.93
1251.66
1251.4
1251.14
1250.88
1250.63
1250.39
1250.15
1249.91
1249.68
1249.46
1249.24
1249.04
1248.85
1248.68
1248.53
1248.41
1248.3
1248.21
1248.14
1248.06
1247.97
1247.82
1247.58
1247.18
1246.57
1245.69
1244.52
1243.09
1241.16
1279.64
1267.18
1260.59
1257.05
1255.34
1254.51
1254.03
1253.68
1253.39
1253.12
1252.86
1252.6
1252.35
1252.1
1251.86
1251.61
1251.37
1251.13
1250.9
1250.67
1250.45
1250.24
1250.04
1249.86
1249.69
1249.55
1249.44
1249.35
1249.28
1249.23
1249.17
1249.09
1248.94
1248.68
1248.23
1247.53
1246.52
1245.16
1243.5
1241.23
1279.84
1268.04
1261.61
1258.04
1256.28
1255.41
1254.94
1254.61
1254.34
1254.09
1253.85
1253.61
1253.38
1253.14
1252.9
1252.67
1252.43
1252.2
1251.97
1251.75
1251.53
1251.32
1251.12
1250.94
1250.78
1250.64
1250.53
1250.44
1250.38
1250.33
1250.28
1250.2
1250.04
1249.76
1249.26
1248.47
1247.32
1245.79
1243.9
1241.31
1280.02
1268.87
1262.63
1259.05
1257.24
1256.35
1255.87
1255.56
1255.31
1255.09
1254.87
1254.65
1254.43
1254.21
1253.99
1253.76
1253.53
1253.31
1253.08
1252.86
1252.64
1252.43
1252.24
1252.06
1251.89
1251.75
1251.64
1251.55
1251.49
1251.44
1251.38
1251.28
1251.11
1250.79
1250.25
1249.38
1248.11
1246.4
1244.29
1241.38
1280.19
1269.65
1263.6
1260.05
1258.2
1257.28
1256.79
1256.5
1256.27
1256.07
1255.87
1255.68
1255.47
1255.27
1255.06
1254.85
1254.63
1254.42
1254.2
1253.98
1253.77
1253.56
1253.36
1253.18
1253.01
1252.87
1252.75
1252.65
1252.58
1252.51
1252.44
1252.33
1252.14
1251.79
1251.19
1250.25
1248.87
1247
1244.67
1241.45
1280.35
1270.37
1264.53
1261.01
1259.14
1258.19
1257.7
1257.4
1257.19
1257.01
1256.84
1256.66
1256.48
1256.29
1256.1
1255.9
1255.7
1255.49
1255.29
1255.08
1254.87
1254.67
1254.47
1254.29
1254.12
1253.96
1253.83
1253.73
1253.64
1253.56
1253.47
1253.34
1253.12
1252.74
1252.1
1251.09
1249.6
1247.58
1245.04
1241.52
1280.49
1271.05
1265.41
1261.94
1260.04
1259.07
1258.56
1258.27
1258.07
1257.9
1257.74
1257.58
1257.42
1257.25
1257.08
1256.89
1256.71
1256.52
1256.32
1256.12
1255.92
1255.73
1255.54
1255.35
1255.18
1255.02
1254.88
1254.76
1254.66
1254.56
1254.45
1254.3
1254.05
1253.64
1252.96
1251.89
1250.31
1248.14
1245.4
1241.59
1280.62
1271.68
1266.24
1262.82
1260.9
1259.9
1259.37
1259.08
1258.88
1258.72
1258.58
1258.43
1258.29
1258.13
1257.98
1257.81
1257.64
1257.46
1257.28
1257.09
1256.91
1256.72
1256.54
1256.36
1256.19
1256.03
1255.88
1255.75
1255.63
1255.52
1255.38
1255.21
1254.94
1254.5
1253.78
1252.66
1251
1248.69
1245.76
1241.66
1280.75
1272.26
1267.02
1263.65
1261.72
1260.68
1260.13
1259.82
1259.62
1259.47
1259.33
1259.2
1259.07
1258.93
1258.79
1258.64
1258.48
1258.32
1258.15
1257.98
1257.81
1257.63
1257.46
1257.29
1257.12
1256.96
1256.81
1256.67
1256.54
1256.41
1256.26
1256.07
1255.77
1255.31
1254.56
1253.4
1251.66
1249.23
1246.12
1241.73
1280.86
1272.8
1267.75
1264.43
1262.49
1261.42
1260.84
1260.51
1260.3
1260.14
1260.01
1259.89
1259.76
1259.64
1259.51
1259.37
1259.23
1259.08
1258.93
1258.78
1258.62
1258.45
1258.29
1258.13
1257.97
1257.82
1257.67
1257.53
1257.39
1257.24
1257.08
1256.86
1256.55
1256.07
1255.3
1254.09
1252.29
1249.75
1246.46
1241.8
1280.96
1273.3
1268.43
1265.17
1263.21
1262.11
1261.49
1261.14
1260.91
1260.75
1260.62
1260.5
1260.38
1260.26
1260.14
1260.02
1259.89
1259.76
1259.62
1259.48
1259.33
1259.19
1259.04
1258.89
1258.74
1258.59
1258.44
1258.3
1258.16
1258.01
1257.83
1257.6
1257.28
1256.78
1255.99
1254.76
1252.91
1250.26
1246.81
1241.87
1281.05
1273.77
1269.07
1265.86
1263.89
1262.75
1262.1
1261.72
1261.48
1261.3
1261.16
1261.04
1260.93
1260.81
1260.7
1260.59
1260.47
1260.35
1260.22
1260.09
1259.96
1259.83
1259.69
1259.55
1259.42
1259.28
1259.14
1259
1258.86
1258.7
1258.52
1258.28
1257.95
1257.44
1256.64
1255.4
1253.5
1250.77
1247.15
1241.93
1281.14
1274.2
1269.67
1266.52
1264.54
1263.36
1262.68
1262.27
1262
1261.81
1261.66
1261.54
1261.42
1261.31
1261.2
1261.09
1260.98
1260.87
1260.75
1260.64
1260.52
1260.39
1260.27
1260.14
1260.02
1259.89
1259.76
1259.62
1259.48
1259.32
1259.14
1258.9
1258.56
1258.06
1257.26
1256.01
1254.08
1251.27
1247.5
1242
1281.22
1274.61
1270.24
1267.14
1265.16
1263.95
1263.23
1262.79
1262.5
1262.3
1262.14
1262.01
1261.89
1261.77
1261.66
1261.56
1261.45
1261.34
1261.23
1261.12
1261.01
1260.9
1260.78
1260.67
1260.55
1260.43
1260.3
1260.18
1260.04
1259.89
1259.7
1259.47
1259.14
1258.64
1257.85
1256.61
1254.66
1251.77
1247.84
1242.07
1281.3
1275
1270.78
1267.75
1265.76
1264.53
1263.78
1263.3
1262.99
1262.78
1262.61
1262.47
1262.34
1262.22
1262.11
1262
1261.9
1261.79
1261.68
1261.57
1261.47
1261.36
1261.25
1261.14
1261.03
1260.91
1260.8
1260.68
1260.55
1260.4
1260.22
1260
1259.67
1259.19
1258.42
1257.19
1255.23
1252.27
1248.2
1242.14
1281.37
1275.37
1271.31
1268.34
1266.36
1265.1
1264.32
1263.83
1263.5
1263.27
1263.09
1262.94
1262.81
1262.68
1262.57
1262.45
1262.34
1262.23
1262.12
1262.01
1261.91
1261.8
1261.69
1261.58
1261.48
1261.37
1261.26
1261.14
1261.02
1260.88
1260.71
1260.49
1260.19
1259.72
1258.98
1257.77
1255.8
1252.78
1248.56
1242.22
1281.45
1275.73
1271.82
1268.92
1266.96
1265.69
1264.89
1264.37
1264.03
1263.79
1263.6
1263.45
1263.31
1263.18
1263.05
1262.93
1262.81
1262.7
1262.58
1262.47
1262.35
1262.24
1262.13
1262.03
1261.92
1261.81
1261.7
1261.59
1261.47
1261.34
1261.18
1260.98
1260.69
1260.25
1259.54
1258.36
1256.39
1253.32
1248.94
1242.29
1281.52
1276.09
1272.33
1269.51
1267.56
1266.29
1265.48
1264.95
1264.6
1264.35
1264.16
1264
1263.86
1263.72
1263.59
1263.46
1263.33
1263.2
1263.08
1262.96
1262.83
1262.72
1262.6
1262.49
1262.38
1262.27
1262.16
1262.04
1261.93
1261.8
1261.65
1261.46
1261.2
1260.79
1260.11
1258.96
1257
1253.87
1249.35
1242.37
1281.58
1276.43
1272.84
1270.1
1268.19
1266.92
1266.1
1265.57
1265.22
1264.97
1264.78
1264.62
1264.47
1264.33
1264.19
1264.05
1263.91
1263.78
1263.64
1263.5
1263.37
1263.24
1263.12
1262.99
1262.87
1262.76
1262.64
1262.53
1262.41
1262.29
1262.15
1261.97
1261.73
1261.35
1260.71
1259.59
1257.64
1254.46
1249.77
1242.46
1281.65
1276.78
1273.35
1270.71
1268.83
1267.58
1266.77
1266.24
1265.9
1265.66
1265.47
1265.31
1265.17
1265.02
1264.87
1264.73
1264.58
1264.42
1264.27
1264.12
1263.98
1263.84
1263.7
1263.56
1263.43
1263.31
1263.18
1263.06
1262.94
1262.82
1262.68
1262.52
1262.29
1261.94
1261.33
1260.25
1258.32
1255.08
1250.23
1242.55
1281.72
1277.13
1273.87
1271.33
1269.51
1268.28
1267.48
1266.97
1266.63
1266.4
1266.23
1266.08
1265.93
1265.79
1265.64
1265.48
1265.32
1265.16
1265
1264.83
1264.67
1264.51
1264.36
1264.21
1264.07
1263.93
1263.79
1263.66
1263.54
1263.41
1263.27
1263.11
1262.9
1262.57
1262
1260.95
1259.03
1255.75
1250.72
1242.65
1281.79
1277.48
1274.39
1271.97
1270.21
1269.02
1268.24
1267.74
1267.43
1267.22
1267.05
1266.91
1266.78
1266.64
1266.49
1266.33
1266.16
1265.98
1265.81
1265.63
1265.45
1265.28
1265.11
1264.95
1264.79
1264.63
1264.49
1264.34
1264.21
1264.07
1263.93
1263.77
1263.57
1263.26
1262.71
1261.7
1259.8
1256.46
1251.25
1242.76
1281.86
1277.83
1274.93
1272.63
1270.95
1269.8
1269.05
1268.58
1268.28
1268.09
1267.94
1267.82
1267.69
1267.56
1267.41
1267.25
1267.08
1266.9
1266.71
1266.52
1266.33
1266.14
1265.96
1265.78
1265.6
1265.43
1265.27
1265.11
1264.96
1264.81
1264.66
1264.5
1264.3
1264
1263.48
1262.49
1260.61
1257.22
1251.82
1242.88
1281.92
1278.19
1275.48
1273.32
1271.72
1270.62
1269.91
1269.46
1269.19
1269.02
1268.89
1268.78
1268.67
1268.55
1268.41
1268.25
1268.07
1267.89
1267.69
1267.49
1267.29
1267.09
1266.89
1266.69
1266.5
1266.32
1266.14
1265.96
1265.79
1265.63
1265.46
1265.29
1265.09
1264.79
1264.29
1263.33
1261.46
1258.03
1252.44
1243.01
1281.99
1278.55
1276.05
1274.03
1272.52
1271.49
1270.81
1270.4
1270.15
1270
1269.89
1269.8
1269.7
1269.59
1269.46
1269.3
1269.13
1268.94
1268.74
1268.54
1268.33
1268.12
1267.9
1267.69
1267.48
1267.28
1267.08
1266.89
1266.7
1266.52
1266.34
1266.15
1265.93
1265.64
1265.15
1264.22
1262.37
1258.9
1253.1
1243.15
1282.06
1278.92
1276.62
1274.76
1273.36
1272.39
1271.76
1271.38
1271.16
1271.02
1270.93
1270.86
1270.77
1270.67
1270.55
1270.4
1270.23
1270.04
1269.84
1269.63
1269.42
1269.19
1268.97
1268.75
1268.53
1268.31
1268.09
1267.88
1267.68
1267.47
1267.27
1267.06
1266.83
1266.53
1266.05
1265.14
1263.31
1259.81
1253.82
1243.31
1282.13
1279.29
1277.22
1275.51
1274.23
1273.34
1272.76
1272.41
1272.21
1272.09
1272.01
1271.95
1271.87
1271.78
1271.66
1271.52
1271.35
1271.17
1270.97
1270.75
1270.53
1270.3
1270.07
1269.84
1269.61
1269.38
1269.15
1268.92
1268.69
1268.47
1268.24
1268.01
1267.76
1267.44
1266.96
1266.08
1264.29
1260.76
1254.58
1243.48
1282.21
1279.68
1277.82
1276.29
1275.13
1274.32
1273.79
1273.47
1273.29
1273.19
1273.11
1273.05
1272.98
1272.89
1272.77
1272.63
1272.47
1272.28
1272.08
1271.87
1271.64
1271.41
1271.18
1270.94
1270.7
1270.45
1270.21
1269.97
1269.72
1269.48
1269.23
1268.97
1268.7
1268.36
1267.88
1267.02
1265.28
1261.75
1255.39
1243.66
1282.28
1280.07
1278.44
1277.09
1276.06
1275.34
1274.87
1274.58
1274.41
1274.3
1274.22
1274.15
1274.08
1273.98
1273.86
1273.71
1273.55
1273.36
1273.16
1272.94
1272.72
1272.48
1272.24
1272
1271.75
1271.5
1271.25
1270.99
1270.73
1270.47
1270.2
1269.92
1269.62
1269.27
1268.78
1267.95
1266.26
1262.76
1256.24
1243.85
1282.35
1280.46
1279.07
1277.9
1277.02
1276.39
1275.97
1275.69
1275.52
1275.41
1275.32
1275.23
1275.13
1275.02
1274.88
1274.73
1274.55
1274.36
1274.15
1273.94
1273.71
1273.47
1273.23
1272.98
1272.73
1272.47
1272.21
1271.94
1271.67
1271.39
1271.1
1270.81
1270.49
1270.12
1269.63
1268.82
1267.21
1263.77
1257.12
1244.06
1282.43
1280.86
1279.7
1278.73
1277.98
1277.44
1277.06
1276.79
1276.61
1276.47
1276.35
1276.23
1276.1
1275.96
1275.8
1275.63
1275.44
1275.24
1275.03
1274.8
1274.57
1274.34
1274.09
1273.84
1273.58
1273.32
1273.05
1272.78
1272.5
1272.21
1271.91
1271.59
1271.26
1270.88
1270.39
1269.61
1268.08
1264.75
1258.02
1244.29
1282.5
1281.24
1280.31
1279.53
1278.9
1278.43
1278.08
1277.81
1277.6
1277.42
1277.25
1277.09
1276.92
1276.75
1276.57
1276.37
1276.17
1275.96
1275.73
1275.51
1275.27
1275.03
1274.78
1274.53
1274.27
1274.01
1273.73
1273.45
1273.16
1272.86
1272.55
1272.23
1271.88
1271.49
1271
1270.27
1268.83
1265.64
1258.88
1244.51
1282.56
1281.58
1280.85
1280.22
1279.7
1279.28
1278.93
1278.65
1278.4
1278.17
1277.96
1277.75
1277.55
1277.34
1277.13
1276.92
1276.7
1276.47
1276.24
1276.01
1275.77
1275.52
1275.27
1275.02
1274.75
1274.49
1274.21
1273.92
1273.63
1273.32
1273
1272.67
1272.31
1271.91
1271.43
1270.72
1269.38
1266.36
1259.67
1244.72
1282.6
1281.82
1281.24
1280.71
1280.26
1279.86
1279.51
1279.2
1278.92
1278.66
1278.41
1278.17
1277.93
1277.7
1277.47
1277.24
1277
1276.77
1276.53
1276.29
1276.05
1275.8
1275.55
1275.29
1275.02
1274.75
1274.47
1274.18
1273.88
1273.57
1273.24
1272.9
1272.53
1272.13
1271.64
1270.93
1269.63
1266.74
1260.16
1244.87
1282.59
1281.94
1281.41
1280.94
1280.5
1280.11
1279.76
1279.43
1279.13
1278.85
1278.58
1278.32
1278.08
1277.83
1277.59
1277.35
1277.12
1276.88
1276.64
1276.4
1276.15
1275.9
1275.64
1275.38
1275.11
1274.84
1274.55
1274.26
1273.95
1273.64
1273.31
1272.96
1272.59
1272.17
1271.65
1270.91
1269.56
1266.66
1260.2
1245.92
818.4
807.809
803.784
802.129
801.385
800.962
800.659
800.406
800.178
799.964
799.761
799.566
799.378
799.197
799.021
798.851
798.684
798.522
798.363
798.208
798.054
797.903
797.753
797.605
797.456
797.307
797.157
797.004
796.848
796.686
796.517
796.34
796.151
795.948
795.728
795.486
795.218
794.921
794.594
794.149
820.975
278.177
249.009
247.269
247.403
247.76
247.96
248.051
248.072
248.059
248.023
247.977
247.93
247.878
247.818
247.762
247.71
247.661
247.616
247.583
247.56
247.555
247.576
247.672
247.813
247.985
248.174
248.353
248.457
248.46
248.291
247.692
246.504
245.602
244.471
243.168
242.434
244.451
277.657
794.058
820.975
243.984
217.214
215.87
216.058
216.12
216.143
216.125
216.09
216.045
215.996
215.947
215.909
215.868
215.813
215.762
215.72
215.679
215.637
215.611
215.588
215.563
215.538
215.531
215.53
215.534
215.537
215.531
215.513
215.517
215.474
215.147
214.816
214.294
213.828
213.113
213.073
216.395
255.561
794.058
820.975
243.243
215.306
214.271
214.229
214.217
214.175
214.135
214.087
214.038
213.989
213.941
213.896
213.849
213.799
213.75
213.71
213.675
213.633
213.599
213.575
213.525
213.488
213.457
213.432
213.413
213.405
213.409
213.458
213.584
213.52
213.393
213.223
212.772
212.68
211.901
211.971
215.401
254.882
794.058
820.976
244.689
215.61
214.93
214.27
214.266
214.167
214.126
214.076
214.032
213.986
213.941
213.896
213.85
213.801
213.752
213.706
213.66
213.612
213.568
213.533
213.483
213.443
213.407
213.381
213.366
213.371
213.423
213.58
213.713
213.67
213.83
214.062
213.308
212.984
212.415
212.019
215.815
255.123
794.058
820.976
246.893
216.699
214.851
214.791
214.515
214.375
214.29
214.233
214.184
214.139
214.094
214.048
214.002
213.955
213.906
213.858
213.809
213.757
213.705
213.657
213.611
213.57
213.532
213.51
213.5
213.523
213.608
213.764
213.858
214.022
214.47
214.511
214.48
213.413
213.261
212.403
215.989
255.338
794.059
820.976
248.622
217.582
214.956
215.165
214.714
214.577
214.471
214.407
214.355
214.309
214.265
214.22
214.175
214.128
214.08
214.031
213.979
213.925
213.87
213.817
213.773
213.736
213.682
213.659
213.651
213.68
213.797
213.941
214.103
214.336
214.908
214.722
214.897
214.427
213.911
213.136
216.334
255.41
794.059
820.976
249.756
218.009
215.756
215.244
215.064
214.748
214.663
214.584
214.531
214.484
214.44
214.397
214.353
214.308
214.26
214.211
214.159
214.105
214.048
213.991
213.943
213.91
213.863
213.836
213.827
213.851
213.957
214.108
214.324
214.542
214.943
215.232
215.361
215.139
214.645
213.727
216.591
255.363
794.059
820.977
250.8
218.734
216.594
215.474
215.086
214.974
214.85
214.765
214.705
214.659
214.616
214.574
214.532
214.489
214.443
214.396
214.345
214.291
214.235
214.176
214.125
214.087
214.058
214.022
214.01
214.027
214.11
214.262
214.486
214.741
215.07
215.517
215.709
215.685
215.254
214.439
216.791
255.201
794.059
820.977
251.632
219.088
216.691
215.779
215.242
215.136
215.027
214.935
214.873
214.827
214.786
214.746
214.708
214.666
214.623
214.578
214.53
214.479
214.425
214.368
214.315
214.275
214.25
214.207
214.193
214.203
214.278
214.418
214.632
214.878
215.197
215.7
215.972
216.093
215.813
215.287
216.931
254.953
794.059
820.977
252.328
219.367
216.819
216.053
215.644
215.268
215.167
215.102
215.031
214.987
214.947
214.909
214.876
214.836
214.796
214.753
214.709
214.662
214.611
214.557
214.503
214.462
214.435
214.397
214.378
214.384
214.447
214.571
214.768
215.013
215.294
215.799
216.091
216.253
216.213
215.93
217.176
254.565
794.06
820.977
252.945
219.621
217
216.27
215.748
215.453
215.282
215.233
215.165
215.132
215.094
215.055
215.036
214.994
214.957
214.917
214.878
214.834
214.788
214.738
214.687
214.643
214.614
214.581
214.559
214.564
214.614
214.721
214.89
215.155
215.379
215.871
216.177
216.333
216.339
216.122
217.57
254.172
794.06
820.977
253.611
219.803
217.094
216.32
215.866
215.645
215.472
215.342
215.304
215.265
215.229
215.199
215.169
215.134
215.101
215.064
215.034
214.992
214.95
214.906
214.861
214.814
214.788
214.754
214.732
214.737
214.777
214.872
215.008
215.314
215.429
215.913
216.236
216.452
216.424
216.191
217.815
253.736
794.06
820.978
254.184
219.965
217.21
216.464
216.047
215.769
215.597
215.489
215.431
215.387
215.352
215.327
215.282
215.259
215.229
215.199
215.167
215.132
215.096
215.057
215.018
214.977
214.949
214.917
214.897
214.899
214.932
215.015
215.126
215.377
215.525
215.922
216.234
216.446
216.431
216.343
218.026
253.276
794.06
820.978
254.618
220.101
217.307
216.575
216.161
215.906
215.72
215.611
215.543
215.495
215.458
215.428
215.395
215.369
215.343
215.317
215.282
215.255
215.224
215.191
215.156
215.123
215.094
215.066
215.048
215.048
215.074
215.141
215.242
215.388
215.633
215.933
216.221
216.423
216.4
216.36
218.098
252.763
794.061
820.978
254.96
220.233
217.411
216.694
216.29
215.991
215.81
215.715
215.645
215.593
215.553
215.52
215.49
215.465
215.44
215.415
215.388
215.363
215.335
215.307
215.278
215.249
215.222
215.198
215.182
215.179
215.199
215.25
215.35
215.447
215.674
215.923
216.195
216.418
216.406
216.268
218.096
252.258
794.061
820.978
255.235
220.372
217.527
216.818
216.384
216.112
215.969
215.834
215.748
215.686
215.64
215.604
215.574
215.549
215.525
215.502
215.479
215.456
215.432
215.408
215.382
215.358
215.334
215.313
215.299
215.295
215.312
215.351
215.438
215.53
215.709
215.886
216.116
216.328
216.365
216.161
218.024
251.899
794.061
820.979
255.491
220.525
217.674
216.992
216.573
216.297
216.097
215.949
215.848
215.776
215.723
215.683
215.652
215.625
215.602
215.58
215.559
215.538
215.517
215.495
215.473
215.452
215.431
215.413
215.399
215.394
215.404
215.428
215.472
215.561
215.707
215.923
216.124
216.26
216.299
216.185
217.908
251.302
794.061
820.979
255.845
220.689
217.844
217.184
216.763
216.462
216.238
216.071
215.953
215.868
215.807
215.762
215.727
215.699
215.675
215.653
215.633
215.614
215.594
215.574
215.555
215.536
215.517
215.501
215.488
215.482
215.486
215.508
215.548
215.623
215.739
215.895
216.056
216.187
216.225
216.168
217.872
250.904
794.062
820.979
256.178
220.876
218.042
217.404
216.979
216.652
216.399
216.206
216.067
215.967
215.895
215.843
215.804
215.774
215.748
215.726
215.706
215.687
215.668
215.65
215.631
215.613
215.596
215.58
215.569
215.562
215.563
215.577
215.609
215.668
215.758
215.879
216.013
216.124
216.156
216.113
217.829
250.618
794.062
820.979
256.553
221.094
218.256
217.647
217.219
216.869
216.584
216.356
216.192
216.073
215.989
215.93
215.887
215.853
215.826
215.803
215.782
215.762
215.743
215.725
215.708
215.69
215.673
215.658
215.646
215.638
215.637
215.646
215.669
215.714
215.782
215.874
215.985
216.078
216.106
216.088
217.778
250.362
794.062
820.98
256.926
221.271
218.507
217.917
217.484
217.117
216.784
216.51
216.328
216.193
216.092
216.027
215.978
215.941
215.911
215.886
215.865
215.844
215.825
215.806
215.788
215.77
215.753
215.738
215.725
215.715
215.711
215.716
215.732
215.765
215.819
215.9
215.981
216.046
216.088
216.097
217.787
250.03
794.062
820.98
257.525
221.506
218.686
218.183
217.754
217.357
217.003
216.702
216.46
216.312
216.215
216.138
216.082
216.039
216.006
215.98
215.957
215.935
215.915
215.895
215.876
215.857
215.84
215.824
215.81
215.798
215.792
215.793
215.803
215.826
215.867
215.934
215.969
216.036
216.092
216.132
217.803
249.916
794.062
820.98
258.085
221.756
218.92
218.454
218.02
217.569
217.189
216.91
216.647
216.496
216.357
216.262
216.195
216.147
216.112
216.085
216.06
216.038
216.016
215.996
215.976
215.956
215.937
215.92
215.904
215.891
215.883
215.879
215.883
215.898
215.924
215.957
216.027
216.122
216.161
216.215
217.857
249.777
794.063
820.98
258.565
221.931
219.182
218.729
218.332
217.878
217.46
217.118
216.8
216.65
216.492
216.39
216.317
216.267
216.23
216.202
216.176
216.153
216.131
216.11
216.089
216.068
216.047
216.03
216.012
215.996
215.986
215.979
215.979
215.988
216.012
216.055
216.131
216.198
216.249
216.324
217.941
249.622
794.063
820.98
259.229
222.207
219.446
218.861
218.585
218.144
217.713
217.34
216.991
216.807
216.649
216.532
216.453
216.399
216.361
216.333
216.305
216.281
216.26
216.238
216.216
216.194
216.169
216.155
216.134
216.114
216.103
216.092
216.088
216.092
216.107
216.147
216.217
216.302
216.364
216.461
218.05
249.432
794.063
820.981
259.813
222.224
219.655
219.156
218.823
218.408
217.968
217.562
217.197
216.978
216.816
216.685
216.6
216.543
216.503
216.479
216.445
216.425
216.403
216.382
216.359
216.336
216.313
216.29
216.269
216.243
216.237
216.223
216.212
216.21
216.217
216.259
216.332
216.391
216.486
216.614
218.171
249.175
794.063
820.981
260.363
222.173
219.821
219.441
219.025
218.654
218.218
217.767
217.431
217.164
216.993
216.85
216.758
216.698
216.659
216.639
216.599
216.58
216.56
216.539
216.517
216.493
216.472
216.442
216.42
216.4
216.38
216.36
216.347
216.338
216.322
216.382
216.433
216.517
216.675
216.798
218.295
248.827
794.064
820.981
260.847
221.972
219.91
219.619
219.234
218.872
218.459
217.912
217.76
217.352
217.176
217.024
216.927
216.865
216.829
216.808
216.77
216.745
216.728
216.708
216.686
216.663
216.638
216.612
216.587
216.57
216.535
216.514
216.499
216.481
216.492
216.479
216.565
216.725
216.896
216.996
218.414
248.482
794.064
820.981
261.361
221.944
219.707
219.635
219.486
219.106
218.718
218.112
217.99
217.568
217.369
217.212
217.108
217.047
217.012
216.989
216.952
216.924
216.906
216.888
216.867
216.843
216.818
216.791
216.763
216.738
216.708
216.684
216.665
216.649
216.658
216.65
216.654
216.859
216.906
217.098
218.492
248.179
794.064
820.982
261.783
222.01
219.21
219.47
219.513
219.268
218.931
218.378
218.119
217.802
217.578
217.415
217.301
217.24
217.204
217.18
217.144
217.114
217.094
217.076
217.056
217.033
217.006
216.978
216.949
216.92
216.888
216.86
216.834
216.813
216.807
216.817
216.815
216.766
217.022
217.388
218.574
247.759
794.064
820.982
262.157
222.067
218.756
219.224
219.399
219.315
219.059
218.61
218.288
218.023
217.792
217.627
217.5
217.443
217.403
217.372
217.34
217.31
217.287
217.27
217.25
217.226
217.199
217.17
217.139
217.107
217.073
217.04
217.009
216.981
216.964
216.963
217.003
216.985
217.063
217.565
218.573
247.246
794.064
820.982
262.425
222.058
218.466
218.94
219.17
219.287
219.111
218.838
218.415
218.231
218.011
217.852
217.708
217.639
217.598
217.564
217.547
217.512
217.486
217.465
217.444
217.419
217.392
217.361
217.328
217.293
217.256
217.219
217.182
217.147
217.116
217.104
217.096
217.197
217.113
217.113
218.232
246.534
794.065
820.982
262.563
221.986
218.231
218.543
218.761
219.178
218.932
219.144
218.57
218.368
218.205
218.058
217.923
217.829
217.79
217.757
217.745
217.711
217.682
217.656
217.632
217.605
217.575
217.543
217.507
217.47
217.431
217.389
217.347
217.304
217.265
217.23
217.226
217.204
217.384
216.68
218.205
245.761
794.065
820.983
262.609
221.86
217.857
218.349
218.36
219.122
219.112
219.094
218.668
218.466
218.395
218.234
218.107
218.029
217.988
217.95
217.922
217.891
217.863
217.832
217.803
217.773
217.741
217.706
217.668
217.628
217.586
217.542
217.495
217.446
217.396
217.348
217.314
217.293
217.296
216.895
217.699
244.453
794.065
820.983
262.541
221.922
217.783
217.861
218.262
218.419
219.148
218.872
218.689
218.658
218.561
218.376
218.264
218.205
218.165
218.128
218.095
218.063
218.036
217.993
217.955
217.921
217.884
217.847
217.806
217.765
217.721
217.673
217.622
217.568
217.509
217.449
217.365
217.307
217.059
217.252
217.091
242.747
794.065
820.983
262.453
221.797
217.996
217.724
218.248
218.264
218.641
218.77
218.793
218.869
218.741
218.631
218.567
218.516
218.471
218.428
218.387
218.35
218.32
218.265
218.215
218.175
218.133
218.087
218.041
217.999
217.955
217.905
217.852
217.797
217.738
217.671
217.585
217.474
217.271
216.88
217.14
241.652
794.066
820.983
263.303
223.054
219.489
219.319
219.825
220.18
220.62
220.848
221.087
221.118
221.059
221.011
220.949
220.878
220.804
220.732
220.664
220.612
220.555
220.496
220.439
220.396
220.353
220.307
220.262
220.22
220.172
220.114
220.052
219.995
219.929
219.846
219.737
219.558
219.285
218.678
219.3
242.825
794.066
820.983
286.458
252.407
250.139
250.642
251.713
252.639
253.394
254.278
254.837
254.962
254.914
254.741
254.5
254.24
253.99
253.766
253.582
253.47
253.38
253.306
253.241
253.186
253.134
253.082
253.03
252.979
252.92
252.853
252.776
252.687
252.571
252.411
252.172
251.796
251.197
250.575
251.447
277.082
794.066
820.892
820.447
820.119
819.82
819.549
819.303
819.078
818.871
818.678
818.497
818.324
818.158
817.997
817.84
817.686
817.533
817.38
817.228
817.074
816.919
816.761
816.601
816.437
816.27
816.099
815.923
815.741
815.554
815.36
815.159
814.948
814.727
814.491
814.23
813.919
813.487
812.737
811.091
807.119
796.623
818.332
807.546
803.59
802.029
801.333
800.931
800.636
800.387
800.16
799.948
799.745
799.551
799.363
799.182
799.007
798.836
798.671
798.509
798.35
798.194
798.041
797.89
797.74
797.592
797.443
797.294
797.143
796.989
796.832
796.67
796.501
796.323
796.135
795.933
795.715
795.475
795.21
794.916
794.591
794.148
820.975
202.837
162.315
159.627
159.648
160.296
160.734
160.99
161.122
161.182
161.195
161.185
161.164
161.133
161.088
161.045
161.009
160.978
160.954
160.951
160.964
161.001
161.086
161.315
161.617
161.969
162.341
162.683
162.866
162.862
162.471
161.403
159.764
158.186
156.31
154.236
153.298
157.568
207.401
794.058
820.975
152.078
110.351
107.825
107.708
107.812
107.893
107.937
107.95
107.948
107.934
107.915
107.895
107.871
107.842
107.816
107.793
107.774
107.758
107.752
107.751
107.761
107.786
107.835
107.899
107.972
108.043
108.098
108.109
108.067
107.902
107.514
107.009
106.438
105.9
105.535
106.353
114.155
176.906
794.058
820.975
149.296
105.77
103.313
103.137
103.125
103.109
103.092
103.072
103.05
103.027
103.004
102.982
102.958
102.934
102.911
102.891
102.873
102.854
102.839
102.827
102.811
102.803
102.8
102.8
102.805
102.814
102.827
102.854
102.871
102.807
102.722
102.609
102.426
102.365
102.361
103.486
111.769
175.663
794.058
820.976
151.1
105.752
103.075
102.806
102.773
102.734
102.711
102.687
102.664
102.642
102.619
102.597
102.574
102.551
102.528
102.506
102.484
102.462
102.442
102.425
102.405
102.388
102.375
102.365
102.362
102.37
102.4
102.464
102.495
102.493
102.555
102.584
102.327
102.262
102.307
103.371
111.712
175.75
794.058
820.976
154.003
106.243
103.156
102.96
102.841
102.789
102.753
102.726
102.703
102.681
102.658
102.636
102.614
102.591
102.568
102.545
102.522
102.497
102.474
102.453
102.433
102.415
102.4
102.39
102.388
102.403
102.444
102.51
102.555
102.638
102.79
102.799
102.743
102.473
102.564
103.466
111.699
175.74
794.059
820.976
156.567
106.883
103.309
103.127
102.927
102.879
102.836
102.807
102.783
102.761
102.739
102.718
102.696
102.673
102.65
102.627
102.602
102.577
102.552
102.529
102.51
102.492
102.473
102.463
102.462
102.479
102.532
102.592
102.674
102.794
102.967
102.948
102.995
102.86
102.833
103.643
111.65
175.505
794.059
820.976
158.578
107.492
103.573
103.177
103.072
102.97
102.926
102.892
102.868
102.846
102.825
102.804
102.783
102.761
102.739
102.715
102.691
102.665
102.639
102.615
102.595
102.578
102.56
102.549
102.546
102.56
102.611
102.677
102.771
102.881
103.043
103.167
103.218
103.168
103.126
103.786
111.52
175.085
794.059
820.977
160.314
108.123
103.952
103.295
103.139
103.068
103.014
102.978
102.951
102.93
102.91
102.89
102.87
102.85
102.828
102.806
102.782
102.757
102.731
102.705
102.684
102.667
102.652
102.638
102.634
102.644
102.685
102.754
102.852
102.966
103.115
103.299
103.391
103.41
103.378
103.978
111.342
174.501
794.059
820.977
161.704
108.583
104.119
103.44
103.197
103.142
103.096
103.059
103.032
103.011
102.993
102.974
102.956
102.936
102.916
102.895
102.872
102.848
102.823
102.798
102.775
102.758
102.744
102.728
102.723
102.729
102.765
102.828
102.922
103.033
103.178
103.389
103.514
103.597
103.626
104.228
111.134
173.773
794.059
820.977
162.822
108.951
104.241
103.573
103.361
103.213
103.166
103.137
103.108
103.089
103.07
103.053
103.037
103.019
103
102.98
102.96
102.937
102.914
102.889
102.866
102.848
102.834
102.818
102.811
102.815
102.845
102.901
102.987
103.096
103.226
103.436
103.568
103.654
103.775
104.413
110.945
172.972
794.06
820.977
163.711
109.278
104.388
103.703
103.433
103.297
103.227
103.202
103.175
103.159
103.142
103.125
103.114
103.095
103.078
103.06
103.042
103.021
103
102.977
102.954
102.935
102.921
102.906
102.897
102.9
102.924
102.972
103.047
103.161
103.268
103.474
103.619
103.73
103.813
104.414
110.771
171.951
794.06
820.977
164.464
109.541
104.49
103.761
103.5
103.385
103.31
103.259
103.24
103.223
103.208
103.194
103.18
103.164
103.148
103.132
103.117
103.098
103.079
103.058
103.038
103.018
103.004
102.989
102.98
102.982
103.001
103.043
103.106
103.225
103.297
103.496
103.645
103.764
103.854
104.424
110.598
170.938
794.06
820.978
165.379
109.784