/*--------------------------------*- C++ -*----------------------------------*\
  =========                 |
  \\      /  F ield         | OpenFOAM: The Open Source CFD Toolbox
   \\    /   O peration     | Website:  https://openfoam.org
    \\  /    A nd           | Version:  12
     \\/     M anipulation  |
\*---------------------------------------------------------------------------*/
FoamFile
{
    format      ascii;
    class       volScalarField;
    location    "500";
    object      p_rgh;
}
// * * * * * * * * * * * * * * * * * * * * * * * * * * * * * * * * * * * * * //

dimensions      [1 -1 -2 0 0 0 0];

internalField   nonuniform List<scalar> 
8000
(
-8.2169
-8.2166
-8.21636
-8.21618
-8.21605
-8.21593
-8.21583
-8.21574
-8.21565
-8.21556
-8.21547
-8.21539
-8.2153
-8.21522
-8.21513
-8.21505
-8.21497
-8.21488
-8.2148
-8.21472
-8.21464
-8.21456
-8.21448
-8.2144
-8.21432
-8.21424
-8.21415
-8.21407
-8.21399
-8.2139
-8.21381
-8.21371
-8.21361
-8.2135
-8.21339
-8.21328
-8.21318
-8.2131
-8.21305
-8.21303
-8.21711
-8.21664
-8.21635
-8.21616
-8.21603
-8.21593
-8.21583
-8.21574
-8.21565
-8.21556
-8.21548
-8.21539
-8.2153
-8.21522
-8.21514
-8.21505
-8.21497
-8.21489
-8.2148
-8.21472
-8.21464
-8.21456
-8.21448
-8.2144
-8.21432
-8.21424
-8.21416
-8.21408
-8.21399
-8.2139
-8.21381
-8.21372
-8.21362
-8.21351
-8.2134
-8.21329
-8.21319
-8.21311
-8.21305
-8.21302
-8.21748
-8.21681
-8.21641
-8.21617
-8.21604
-8.21593
-8.21584
-8.21575
-8.21566
-8.21557
-8.21549
-8.2154
-8.21532
-8.21523
-8.21515
-8.21506
-8.21498
-8.2149
-8.21482
-8.21473
-8.21465
-8.21457
-8.21449
-8.21441
-8.21433
-8.21425
-8.21418
-8.2141
-8.21401
-8.21393
-8.21385
-8.21375
-8.21366
-8.21355
-8.21345
-8.21333
-8.21322
-8.21312
-8.21304
-8.21299
-8.21794
-8.21706
-8.21651
-8.21623
-8.21607
-8.21596
-8.21586
-8.21578
-8.21569
-8.2156
-8.21552
-8.21544
-8.21535
-8.21527
-8.21518
-8.2151
-8.21502
-8.21493
-8.21485
-8.21477
-8.21469
-8.21461
-8.21453
-8.21445
-8.21437
-8.2143
-8.21422
-8.21414
-8.21407
-8.21399
-8.21391
-8.21383
-8.21374
-8.21363
-8.21353
-8.2134
-8.21328
-8.21315
-8.21304
-8.21295
-8.21845
-8.21738
-8.21669
-8.21633
-8.21614
-8.21602
-8.21592
-8.21583
-8.21575
-8.21567
-8.21558
-8.2155
-8.21541
-8.21533
-8.21525
-8.21516
-8.21508
-8.215
-8.21492
-8.21483
-8.21475
-8.21467
-8.21459
-8.21452
-8.21444
-8.21437
-8.2143
-8.21422
-8.21416
-8.21409
-8.21401
-8.21394
-8.21385
-8.21375
-8.21364
-8.21351
-8.21335
-8.21319
-8.21303
-8.21289
-8.219
-8.21775
-8.21693
-8.21647
-8.21625
-8.21611
-8.21601
-8.21593
-8.21584
-8.21576
-8.21568
-8.2156
-8.21551
-8.21543
-8.21535
-8.21526
-8.21518
-8.2151
-8.21502
-8.21493
-8.21485
-8.21477
-8.2147
-8.21462
-8.21455
-8.21447
-8.21441
-8.21434
-8.21428
-8.21422
-8.21415
-8.21409
-8.214
-8.21391
-8.21378
-8.21364
-8.21344
-8.21324
-8.21303
-8.21281
-8.21955
-8.21814
-8.2172
-8.21666
-8.21639
-8.21624
-8.21614
-8.21605
-8.21597
-8.21589
-8.21581
-8.21573
-8.21565
-8.21557
-8.21548
-8.2154
-8.21532
-8.21524
-8.21515
-8.21507
-8.21499
-8.21491
-8.21483
-8.21476
-8.21469
-8.21462
-8.21455
-8.21449
-8.21444
-8.21438
-8.21432
-8.21426
-8.21418
-8.21409
-8.21395
-8.21378
-8.21356
-8.21329
-8.21301
-8.21272
-8.22011
-8.21857
-8.2175
-8.21689
-8.21657
-8.2164
-8.21629
-8.21621
-8.21613
-8.21605
-8.21597
-8.21589
-8.21581
-8.21574
-8.21565
-8.21557
-8.21549
-8.21541
-8.21533
-8.21525
-8.21516
-8.21508
-8.21501
-8.21493
-8.21486
-8.21479
-8.21473
-8.21468
-8.21462
-8.21457
-8.21452
-8.21446
-8.21438
-8.21428
-8.21414
-8.21394
-8.21367
-8.21335
-8.21299
-8.21261
-8.22067
-8.21901
-8.21783
-8.21714
-8.21678
-8.21659
-8.21647
-8.21639
-8.21631
-8.21624
-8.21616
-8.21609
-8.21601
-8.21593
-8.21586
-8.21578
-8.2157
-8.21561
-8.21553
-8.21545
-8.21537
-8.21529
-8.21521
-8.21514
-8.21507
-8.215
-8.21494
-8.21488
-8.21483
-8.21479
-8.21473
-8.21468
-8.2146
-8.21449
-8.21433
-8.21411
-8.2138
-8.21341
-8.21296
-8.21248
-8.22122
-8.21946
-8.21818
-8.21742
-8.21702
-8.2168
-8.21667
-8.21659
-8.21651
-8.21644
-8.21637
-8.2163
-8.21623
-8.21616
-8.21608
-8.216
-8.21592
-8.21584
-8.21576
-8.21568
-8.2156
-8.21552
-8.21544
-8.21537
-8.2153
-8.21523
-8.21517
-8.21512
-8.21507
-8.21502
-8.21497
-8.21491
-8.21483
-8.21471
-8.21454
-8.21428
-8.21393
-8.21346
-8.21292
-8.21233
-8.22176
-8.21991
-8.21855
-8.21772
-8.21727
-8.21703
-8.21689
-8.2168
-8.21673
-8.21667
-8.2166
-8.21653
-8.21646
-8.21639
-8.21632
-8.21625
-8.21617
-8.21609
-8.21601
-8.21593
-8.21585
-8.21578
-8.2157
-8.21562
-8.21555
-8.21548
-8.21542
-8.21537
-8.21532
-8.21527
-8.21522
-8.21515
-8.21507
-8.21494
-8.21475
-8.21446
-8.21406
-8.21352
-8.21287
-8.21216
-8.22229
-8.22037
-8.21893
-8.21804
-8.21754
-8.21727
-8.21713
-8.21703
-8.21696
-8.2169
-8.21683
-8.21677
-8.21671
-8.21664
-8.21657
-8.2165
-8.21642
-8.21635
-8.21627
-8.2162
-8.21612
-8.21604
-8.21597
-8.21589
-8.21582
-8.21575
-8.21569
-8.21563
-8.21558
-8.21553
-8.21547
-8.21541
-8.21532
-8.21518
-8.21497
-8.21465
-8.21419
-8.21357
-8.21281
-8.21197
-8.22281
-8.22083
-8.21932
-8.21836
-8.21782
-8.21753
-8.21736
-8.21726
-8.21719
-8.21713
-8.21707
-8.21701
-8.21695
-8.21688
-8.21682
-8.21675
-8.21668
-8.21661
-8.21654
-8.21646
-8.21639
-8.21631
-8.21624
-8.21617
-8.2161
-8.21603
-8.21597
-8.21591
-8.21585
-8.2158
-8.21574
-8.21567
-8.21557
-8.21542
-8.21519
-8.21483
-8.21432
-8.21362
-8.21274
-8.21176
-8.22331
-8.22128
-8.21972
-8.2187
-8.21811
-8.21778
-8.2176
-8.21749
-8.21742
-8.21735
-8.2173
-8.21724
-8.21718
-8.21712
-8.21706
-8.217
-8.21693
-8.21687
-8.2168
-8.21673
-8.21666
-8.21659
-8.21651
-8.21644
-8.21637
-8.21631
-8.21624
-8.21618
-8.21613
-8.21607
-8.21601
-8.21593
-8.21582
-8.21566
-8.2154
-8.21502
-8.21445
-8.21366
-8.21266
-8.21153
-8.22381
-8.22173
-8.22011
-8.21904
-8.2184
-8.21805
-8.21785
-8.21772
-8.21764
-8.21758
-8.21752
-8.21746
-8.21741
-8.21735
-8.21729
-8.21724
-8.21717
-8.21711
-8.21705
-8.21698
-8.21692
-8.21685
-8.21678
-8.21671
-8.21665
-8.21658
-8.21652
-8.21646
-8.2164
-8.21634
-8.21627
-8.21619
-8.21607
-8.2159
-8.21562
-8.2152
-8.21458
-8.2137
-8.21258
-8.21129
-8.22429
-8.22218
-8.22051
-8.21938
-8.2187
-8.21831
-8.21809
-8.21795
-8.21786
-8.21779
-8.21773
-8.21768
-8.21762
-8.21757
-8.21751
-8.21746
-8.2174
-8.21734
-8.21728
-8.21722
-8.21716
-8.2171
-8.21703
-8.21697
-8.21691
-8.21685
-8.21678
-8.21672
-8.21666
-8.2166
-8.21653
-8.21644
-8.21632
-8.21613
-8.21584
-8.21539
-8.21471
-8.21374
-8.21248
-8.21102
-8.22476
-8.22262
-8.22091
-8.21973
-8.219
-8.21858
-8.21833
-8.21817
-8.21807
-8.218
-8.21793
-8.21788
-8.21782
-8.21777
-8.21772
-8.21767
-8.21761
-8.21756
-8.2175
-8.21745
-8.21739
-8.21733
-8.21727
-8.21721
-8.21716
-8.2171
-8.21704
-8.21698
-8.21692
-8.21685
-8.21678
-8.21669
-8.21656
-8.21636
-8.21605
-8.21557
-8.21484
-8.21378
-8.21239
-8.21075
-8.22522
-8.22306
-8.22131
-8.22008
-8.21931
-8.21884
-8.21857
-8.2184
-8.21828
-8.2182
-8.21813
-8.21807
-8.21802
-8.21797
-8.21791
-8.21786
-8.21781
-8.21776
-8.21771
-8.21766
-8.2176
-8.21755
-8.2175
-8.21744
-8.21739
-8.21733
-8.21728
-8.21722
-8.21716
-8.2171
-8.21702
-8.21692
-8.21679
-8.21658
-8.21626
-8.21575
-8.21497
-8.21382
-8.21228
-8.21046
-8.22566
-8.22349
-8.22171
-8.22044
-8.21962
-8.21912
-8.21881
-8.21862
-8.21849
-8.2184
-8.21833
-8.21827
-8.21821
-8.21816
-8.2181
-8.21805
-8.218
-8.21796
-8.21791
-8.21786
-8.21781
-8.21776
-8.21771
-8.21765
-8.2176
-8.21755
-8.2175
-8.21744
-8.21739
-8.21732
-8.21725
-8.21715
-8.21701
-8.2168
-8.21647
-8.21594
-8.21511
-8.21387
-8.21218
-8.21016
-8.2261
-8.22392
-8.22211
-8.2208
-8.21994
-8.2194
-8.21907
-8.21886
-8.21871
-8.21861
-8.21853
-8.21846
-8.21841
-8.21835
-8.2183
-8.21825
-8.2182
-8.21815
-8.2181
-8.21805
-8.218
-8.21795
-8.21791
-8.21786
-8.21781
-8.21776
-8.21771
-8.21766
-8.2176
-8.21754
-8.21747
-8.21737
-8.21723
-8.21702
-8.21668
-8.21613
-8.21526
-8.21393
-8.21209
-8.20985
-8.22653
-8.22434
-8.22251
-8.22116
-8.22026
-8.21969
-8.21933
-8.2191
-8.21895
-8.21884
-8.21875
-8.21868
-8.21862
-8.21856
-8.2185
-8.21845
-8.2184
-8.21835
-8.2183
-8.21825
-8.2182
-8.21815
-8.21811
-8.21806
-8.21801
-8.21796
-8.21792
-8.21787
-8.21782
-8.21776
-8.21769
-8.21759
-8.21746
-8.21725
-8.2169
-8.21634
-8.21542
-8.21399
-8.21199
-8.20954
-8.22694
-8.22475
-8.22291
-8.22154
-8.2206
-8.22
-8.21962
-8.21937
-8.21921
-8.21909
-8.219
-8.21892
-8.21885
-8.21879
-8.21873
-8.21868
-8.21862
-8.21857
-8.21852
-8.21846
-8.21841
-8.21836
-8.21831
-8.21827
-8.21822
-8.21817
-8.21813
-8.21808
-8.21803
-8.21797
-8.2179
-8.21781
-8.21768
-8.21748
-8.21714
-8.21656
-8.2156
-8.21408
-8.21191
-8.20922
-8.22734
-8.22516
-8.22332
-8.22192
-8.22096
-8.22033
-8.21993
-8.21967
-8.21949
-8.21937
-8.21928
-8.2192
-8.21913
-8.21906
-8.219
-8.21894
-8.21888
-8.21882
-8.21876
-8.21871
-8.21865
-8.2186
-8.21855
-8.21849
-8.21845
-8.2184
-8.21835
-8.2183
-8.21825
-8.2182
-8.21813
-8.21805
-8.21792
-8.21772
-8.21739
-8.2168
-8.2158
-8.21419
-8.21184
-8.20889
-8.22773
-8.22557
-8.22373
-8.22232
-8.22133
-8.22068
-8.22026
-8.21999
-8.21981
-8.21969
-8.2196
-8.21952
-8.21945
-8.21938
-8.21931
-8.21925
-8.21918
-8.21912
-8.21905
-8.21899
-8.21893
-8.21887
-8.21881
-8.21875
-8.2187
-8.21865
-8.2186
-8.21855
-8.2185
-8.21845
-8.21838
-8.2183
-8.21818
-8.21799
-8.21766
-8.21707
-8.21604
-8.21433
-8.21179
-8.20856
-8.2281
-8.22598
-8.22414
-8.22273
-8.22173
-8.22107
-8.22063
-8.22036
-8.22018
-8.22006
-8.21996
-8.21989
-8.21982
-8.21975
-8.21968
-8.21961
-8.21954
-8.21946
-8.21939
-8.21932
-8.21925
-8.21919
-8.21912
-8.21906
-8.219
-8.21894
-8.21889
-8.21884
-8.21878
-8.21873
-8.21867
-8.21859
-8.21848
-8.21829
-8.21797
-8.21738
-8.21631
-8.2145
-8.21177
-8.20824
-8.22846
-8.22638
-8.22457
-8.22316
-8.22215
-8.22148
-8.22104
-8.22077
-8.22059
-8.22047
-8.22039
-8.22031
-8.22025
-8.22018
-8.22011
-8.22003
-8.21995
-8.21988
-8.2198
-8.21972
-8.21964
-8.21957
-8.21949
-8.21942
-8.21935
-8.21929
-8.21923
-8.21917
-8.21911
-8.21905
-8.21899
-8.21892
-8.21881
-8.21863
-8.21832
-8.21772
-8.21662
-8.21471
-8.21177
-8.20791
-8.2288
-8.22677
-8.22499
-8.22361
-8.2226
-8.22193
-8.22149
-8.22122
-8.22105
-8.22094
-8.22086
-8.2208
-8.22073
-8.22067
-8.2206
-8.22052
-8.22044
-8.22036
-8.22027
-8.22018
-8.2201
-8.22001
-8.21993
-8.21985
-8.21977
-8.2197
-8.21963
-8.21956
-8.2195
-8.21943
-8.21937
-8.21929
-8.21919
-8.21902
-8.2187
-8.21811
-8.21697
-8.21496
-8.2118
-8.20759
-8.22913
-8.22716
-8.22543
-8.22407
-8.22308
-8.22241
-8.22198
-8.22172
-8.22156
-8.22146
-8.22139
-8.22134
-8.22128
-8.22122
-8.22116
-8.22108
-8.221
-8.22091
-8.22082
-8.22072
-8.22063
-8.22053
-8.22044
-8.22035
-8.22026
-8.22018
-8.2201
-8.22002
-8.21995
-8.21988
-8.2198
-8.21972
-8.21962
-8.21945
-8.21914
-8.21854
-8.21738
-8.21526
-8.21186
-8.20727
-8.22944
-8.22754
-8.22588
-8.22456
-8.22359
-8.22293
-8.22251
-8.22226
-8.22212
-8.22203
-8.22198
-8.22194
-8.22189
-8.22184
-8.22178
-8.2217
-8.22162
-8.22153
-8.22143
-8.22133
-8.22123
-8.22113
-8.22102
-8.22092
-8.22083
-8.22073
-8.22064
-8.22055
-8.22047
-8.22038
-8.2203
-8.22021
-8.2201
-8.21993
-8.21963
-8.21903
-8.21783
-8.21561
-8.21197
-8.20696
-8.22973
-8.22792
-8.22633
-8.22506
-8.22413
-8.22349
-8.22309
-8.22286
-8.22273
-8.22266
-8.22262
-8.22259
-8.22255
-8.22251
-8.22245
-8.22238
-8.2223
-8.22221
-8.22211
-8.22201
-8.2219
-8.22179
-8.22168
-8.22157
-8.22146
-8.22135
-8.22125
-8.22115
-8.22105
-8.22096
-8.22086
-8.22076
-8.22064
-8.22047
-8.22016
-8.21956
-8.21834
-8.21602
-8.21212
-8.20666
-8.23001
-8.2283
-8.22679
-8.22559
-8.2247
-8.22409
-8.22371
-8.2235
-8.22339
-8.22333
-8.2233
-8.22329
-8.22326
-8.22323
-8.22318
-8.22312
-8.22304
-8.22295
-8.22285
-8.22274
-8.22262
-8.22251
-8.22239
-8.22227
-8.22216
-8.22204
-8.22192
-8.22181
-8.2217
-8.22159
-8.22148
-8.22137
-8.22123
-8.22105
-8.22074
-8.22014
-8.2189
-8.21648
-8.21232
-8.20637
-8.23026
-8.22867
-8.22726
-8.22613
-8.2253
-8.22474
-8.22438
-8.22419
-8.22409
-8.22405
-8.22404
-8.22403
-8.22402
-8.22399
-8.22395
-8.22389
-8.22381
-8.22372
-8.22362
-8.22351
-8.22339
-8.22327
-8.22315
-8.22303
-8.2229
-8.22278
-8.22265
-8.22252
-8.2224
-8.22227
-8.22215
-8.22202
-8.22187
-8.22167
-8.22136
-8.22075
-8.2195
-8.217
-8.21256
-8.2061
-8.2305
-8.22904
-8.22775
-8.22671
-8.22594
-8.22542
-8.2251
-8.22493
-8.22485
-8.22481
-8.22481
-8.22481
-8.2248
-8.22477
-8.22473
-8.22468
-8.2246
-8.22451
-8.22441
-8.2243
-8.22418
-8.22406
-8.22393
-8.22381
-8.22367
-8.22354
-8.2234
-8.22327
-8.22313
-8.22299
-8.22285
-8.2227
-8.22253
-8.22232
-8.222
-8.2214
-8.22014
-8.21757
-8.21287
-8.20584
-8.23072
-8.22941
-8.22824
-8.2273
-8.22662
-8.22615
-8.22586
-8.22571
-8.22564
-8.22561
-8.22561
-8.2256
-8.22559
-8.22557
-8.22553
-8.22547
-8.22539
-8.2253
-8.2252
-8.22509
-8.22497
-8.22484
-8.22472
-8.22458
-8.22444
-8.2243
-8.22416
-8.22402
-8.22387
-8.22371
-8.22355
-8.22339
-8.2232
-8.22298
-8.22265
-8.22205
-8.2208
-8.21818
-8.21322
-8.2056
-8.23093
-8.22977
-8.22875
-8.22792
-8.22733
-8.22692
-8.22667
-8.22653
-8.22646
-8.22643
-8.22641
-8.2264
-8.22638
-8.22634
-8.22629
-8.22623
-8.22615
-8.22605
-8.22595
-8.22584
-8.22572
-8.22559
-8.22546
-8.22532
-8.22518
-8.22504
-8.22489
-8.22473
-8.22457
-8.22441
-8.22424
-8.22405
-8.22385
-8.22361
-8.22328
-8.22269
-8.22147
-8.21883
-8.21363
-8.20539
-8.23112
-8.23013
-8.22927
-8.22856
-8.22805
-8.22771
-8.22748
-8.22736
-8.22728
-8.22723
-8.2272
-8.22716
-8.22712
-8.22707
-8.227
-8.22692
-8.22683
-8.22674
-8.22663
-8.22651
-8.22639
-8.22626
-8.22612
-8.22599
-8.22584
-8.22569
-8.22554
-8.22538
-8.22521
-8.22504
-8.22486
-8.22466
-8.22445
-8.2242
-8.22386
-8.22329
-8.22212
-8.21948
-8.21408
-8.20521
-8.23129
-8.23048
-8.22977
-8.2292
-8.22877
-8.22848
-8.22827
-8.22814
-8.22804
-8.22797
-8.22791
-8.22784
-8.22777
-8.22769
-8.22761
-8.22751
-8.22741
-8.2273
-8.22719
-8.22707
-8.22694
-8.22681
-8.22668
-8.22653
-8.22639
-8.22624
-8.22608
-8.22592
-8.22574
-8.22556
-8.22537
-8.22517
-8.22495
-8.22469
-8.22435
-8.22381
-8.22269
-8.22011
-8.21456
-8.20506
-8.23143
-8.23078
-8.23022
-8.22976
-8.22941
-8.22915
-8.22895
-8.2288
-8.22868
-8.22857
-8.22847
-8.22838
-8.22828
-8.22817
-8.22807
-8.22796
-8.22784
-8.22773
-8.2276
-8.22748
-8.22735
-8.22721
-8.22708
-8.22693
-8.22678
-8.22663
-8.22647
-8.2263
-8.22612
-8.22594
-8.22574
-8.22553
-8.22531
-8.22504
-8.22471
-8.22418
-8.22313
-8.22065
-8.21502
-8.20495
-8.23153
-8.231
-8.23054
-8.23017
-8.22986
-8.22962
-8.22942
-8.22925
-8.2291
-8.22897
-8.22884
-8.22871
-8.22859
-8.22847
-8.22835
-8.22823
-8.2281
-8.22798
-8.22785
-8.22772
-8.22758
-8.22745
-8.22731
-8.22716
-8.22701
-8.22685
-8.22669
-8.22652
-8.22634
-8.22615
-8.22594
-8.22573
-8.22549
-8.22523
-8.22489
-8.22436
-8.22334
-8.22094
-8.21531
-8.20482
-8.23157
-8.2311
-8.23069
-8.23035
-8.23007
-8.22983
-8.22962
-8.22944
-8.22928
-8.22913
-8.22899
-8.22885
-8.22871
-8.22858
-8.22845
-8.22833
-8.2282
-8.22807
-8.22794
-8.2278
-8.22767
-8.22753
-8.22739
-8.22724
-8.22708
-8.22692
-8.22676
-8.22658
-8.2264
-8.22621
-8.226
-8.22578
-8.22554
-8.22526
-8.22491
-8.22436
-8.22329
-8.22087
-8.21529
-8.20467
-8.21686
-8.21656
-8.21634
-8.21617
-8.21604
-8.21593
-8.21583
-8.21574
-8.21565
-8.21556
-8.21547
-8.21539
-8.2153
-8.21522
-8.21513
-8.21505
-8.21496
-8.21488
-8.2148
-8.21472
-8.21464
-8.21456
-8.21448
-8.2144
-8.21432
-8.21423
-8.21415
-8.21407
-8.21399
-8.2139
-8.2138
-8.21371
-8.2136
-8.21349
-8.21338
-8.21327
-8.21317
-8.21309
-8.21304
-8.21302
-8.21704
-8.21658
-8.21631
-8.21614
-8.21602
-8.21592
-8.21583
-8.21574
-8.21565
-8.21556
-8.21547
-8.21539
-8.2153
-8.21522
-8.21513
-8.21505
-8.21497
-8.21488
-8.2148
-8.21472
-8.21464
-8.21456
-8.21448
-8.2144
-8.21432
-8.21424
-8.21416
-8.21407
-8.21399
-8.2139
-8.21381
-8.21372
-8.21361
-8.21351
-8.2134
-8.21329
-8.21319
-8.2131
-8.21304
-8.21302
-8.2174
-8.21672
-8.21635
-8.21614
-8.21602
-8.21592
-8.21583
-8.21574
-8.21565
-8.21557
-8.21548
-8.2154
-8.21531
-8.21523
-8.21514
-8.21506
-8.21498
-8.21489
-8.21481
-8.21473
-8.21465
-8.21457
-8.21449
-8.21441
-8.21433
-8.21425
-8.21417
-8.21409
-8.21401
-8.21393
-8.21384
-8.21375
-8.21366
-8.21355
-8.21344
-8.21333
-8.21322
-8.21312
-8.21304
-8.21299
-8.21786
-8.21696
-8.21643
-8.21619
-8.21605
-8.21595
-8.21585
-8.21577
-8.21568
-8.2156
-8.21551
-8.21543
-8.21534
-8.21526
-8.21518
-8.21509
-8.21501
-8.21493
-8.21485
-8.21476
-8.21468
-8.2146
-8.21452
-8.21444
-8.21437
-8.21429
-8.21421
-8.21414
-8.21406
-8.21399
-8.21391
-8.21382
-8.21374
-8.21363
-8.21353
-8.2134
-8.21328
-8.21315
-8.21304
-8.21295
-8.21838
-8.21726
-8.21658
-8.21628
-8.21611
-8.216
-8.21591
-8.21582
-8.21574
-8.21566
-8.21557
-8.21549
-8.21541
-8.21532
-8.21524
-8.21516
-8.21507
-8.21499
-8.21491
-8.21483
-8.21475
-8.21467
-8.21459
-8.21451
-8.21443
-8.21436
-8.21429
-8.21422
-8.21415
-8.21408
-8.21401
-8.21394
-8.21386
-8.21376
-8.21365
-8.21352
-8.21336
-8.2132
-8.21303
-8.21289
-8.21893
-8.21761
-8.21681
-8.2164
-8.21621
-8.21609
-8.216
-8.21591
-8.21583
-8.21575
-8.21567
-8.21559
-8.2155
-8.21542
-8.21534
-8.21526
-8.21517
-8.21509
-8.21501
-8.21493
-8.21485
-8.21477
-8.21469
-8.21461
-8.21454
-8.21447
-8.2144
-8.21434
-8.21428
-8.21422
-8.21415
-8.21409
-8.21402
-8.21393
-8.2138
-8.21366
-8.21346
-8.21325
-8.21303
-8.21282
-8.21949
-8.21801
-8.21707
-8.21658
-8.21635
-8.21622
-8.21612
-8.21604
-8.21596
-8.21588
-8.2158
-8.21572
-8.21564
-8.21556
-8.21547
-8.21539
-8.21531
-8.21523
-8.21515
-8.21506
-8.21498
-8.2149
-8.21483
-8.21475
-8.21468
-8.21461
-8.21455
-8.21449
-8.21443
-8.21438
-8.21433
-8.21427
-8.2142
-8.21411
-8.21398
-8.21381
-8.21358
-8.21331
-8.21302
-8.21272
-8.22005
-8.21843
-8.21736
-8.2168
-8.21652
-8.21638
-8.21627
-8.21619
-8.21612
-8.21604
-8.21596
-8.21588
-8.21581
-8.21573
-8.21565
-8.21556
-8.21548
-8.2154
-8.21532
-8.21524
-8.21516
-8.21508
-8.215
-8.21492
-8.21485
-8.21479
-8.21473
-8.21467
-8.21462
-8.21457
-8.21452
-8.21447
-8.2144
-8.21431
-8.21417
-8.21398
-8.21371
-8.21338
-8.213
-8.21261
-8.22061
-8.21887
-8.21769
-8.21705
-8.21672
-8.21656
-8.21645
-8.21637
-8.2163
-8.21623
-8.21615
-8.21608
-8.216
-8.21593
-8.21585
-8.21577
-8.21569
-8.21561
-8.21552
-8.21544
-8.21536
-8.21528
-8.2152
-8.21513
-8.21506
-8.21499
-8.21493
-8.21488
-8.21483
-8.21479
-8.21474
-8.21469
-8.21462
-8.21452
-8.21437
-8.21415
-8.21384
-8.21344
-8.21298
-8.21248
-8.22116
-8.21932
-8.21804
-8.21732
-8.21695
-8.21676
-8.21665
-8.21657
-8.2165
-8.21643
-8.21637
-8.2163
-8.21622
-8.21615
-8.21607
-8.216
-8.21592
-8.21584
-8.21576
-8.21567
-8.21559
-8.21551
-8.21544
-8.21536
-8.21529
-8.21522
-8.21516
-8.21511
-8.21506
-8.21502
-8.21497
-8.21492
-8.21485
-8.21475
-8.21458
-8.21433
-8.21398
-8.2135
-8.21294
-8.21234
-8.22171
-8.21977
-8.2184
-8.21761
-8.2172
-8.21699
-8.21687
-8.21679
-8.21672
-8.21666
-8.21659
-8.21653
-8.21646
-8.21639
-8.21631
-8.21624
-8.21616
-8.21609
-8.21601
-8.21593
-8.21585
-8.21577
-8.21569
-8.21562
-8.21554
-8.21548
-8.21542
-8.21536
-8.21531
-8.21527
-8.21522
-8.21517
-8.21509
-8.21498
-8.2148
-8.21452
-8.21412
-8.21357
-8.2129
-8.21217
-8.22224
-8.22023
-8.21878
-8.21792
-8.21747
-8.21723
-8.2171
-8.21702
-8.21695
-8.21689
-8.21683
-8.21676
-8.2167
-8.21663
-8.21656
-8.21649
-8.21642
-8.21634
-8.21627
-8.21619
-8.21611
-8.21604
-8.21596
-8.21588
-8.21581
-8.21575
-8.21568
-8.21563
-8.21558
-8.21553
-8.21548
-8.21542
-8.21534
-8.21521
-8.21502
-8.21471
-8.21426
-8.21363
-8.21285
-8.21198
-8.22276
-8.22069
-8.21917
-8.21824
-8.21774
-8.21748
-8.21734
-8.21725
-8.21718
-8.21712
-8.21706
-8.217
-8.21694
-8.21688
-8.21681
-8.21675
-8.21668
-8.21661
-8.21653
-8.21646
-8.21638
-8.21631
-8.21623
-8.21616
-8.21609
-8.21602
-8.21596
-8.2159
-8.21585
-8.2158
-8.21575
-8.21568
-8.21559
-8.21546
-8.21524
-8.2149
-8.2144
-8.21369
-8.21279
-8.21177
-8.22327
-8.22115
-8.21956
-8.21857
-8.21802
-8.21773
-8.21758
-8.21748
-8.21741
-8.21735
-8.21729
-8.21723
-8.21718
-8.21712
-8.21706
-8.21699
-8.21693
-8.21686
-8.21679
-8.21672
-8.21665
-8.21658
-8.21651
-8.21644
-8.21637
-8.2163
-8.21624
-8.21618
-8.21612
-8.21607
-8.21601
-8.21594
-8.21584
-8.2157
-8.21546
-8.21509
-8.21453
-8.21374
-8.21271
-8.21155
-8.22377
-8.22161
-8.21996
-8.21891
-8.21831
-8.21799
-8.21781
-8.21771
-8.21763
-8.21757
-8.21751
-8.21746
-8.2174
-8.21735
-8.21729
-8.21723
-8.21717
-8.21711
-8.21705
-8.21698
-8.21691
-8.21685
-8.21678
-8.21671
-8.21664
-8.21658
-8.21652
-8.21646
-8.2164
-8.21634
-8.21628
-8.2162
-8.2161
-8.21593
-8.21568
-8.21528
-8.21467
-8.21379
-8.21264
-8.2113
-8.22425
-8.22206
-8.22036
-8.21925
-8.21861
-8.21825
-8.21805
-8.21793
-8.21785
-8.21778
-8.21772
-8.21767
-8.21762
-8.21756
-8.21751
-8.21746
-8.2174
-8.21734
-8.21728
-8.21722
-8.21716
-8.2171
-8.21703
-8.21697
-8.21691
-8.21684
-8.21678
-8.21672
-8.21666
-8.2166
-8.21654
-8.21646
-8.21634
-8.21617
-8.2159
-8.21547
-8.21481
-8.21384
-8.21255
-8.21104
-8.22472
-8.2225
-8.22076
-8.2196
-8.21891
-8.21851
-8.21829
-8.21815
-8.21806
-8.21799
-8.21793
-8.21787
-8.21782
-8.21777
-8.21772
-8.21767
-8.21761
-8.21756
-8.2175
-8.21745
-8.21739
-8.21733
-8.21727
-8.21721
-8.21715
-8.2171
-8.21704
-8.21698
-8.21692
-8.21686
-8.21679
-8.2167
-8.21658
-8.2164
-8.21611
-8.21566
-8.21494
-8.21389
-8.21246
-8.21077
-8.22518
-8.22294
-8.22116
-8.21995
-8.21921
-8.21878
-8.21853
-8.21837
-8.21827
-8.21819
-8.21812
-8.21807
-8.21801
-8.21796
-8.21791
-8.21786
-8.21781
-8.21776
-8.21771
-8.21766
-8.2176
-8.21755
-8.2175
-8.21744
-8.21739
-8.21733
-8.21728
-8.21722
-8.21716
-8.2171
-8.21703
-8.21694
-8.21681
-8.21663
-8.21633
-8.21585
-8.21509
-8.21394
-8.21237
-8.21049
-8.22563
-8.22338
-8.22156
-8.2203
-8.21952
-8.21905
-8.21877
-8.2186
-8.21848
-8.21839
-8.21832
-8.21826
-8.21821
-8.21815
-8.2181
-8.21805
-8.218
-8.21795
-8.21791
-8.21786
-8.21781
-8.21776
-8.21771
-8.21766
-8.2176
-8.21755
-8.2175
-8.21745
-8.21739
-8.21733
-8.21726
-8.21717
-8.21704
-8.21685
-8.21654
-8.21604
-8.21524
-8.214
-8.21228
-8.21019
-8.22607
-8.22381
-8.22196
-8.22066
-8.21983
-8.21933
-8.21902
-8.21883
-8.2187
-8.2186
-8.21852
-8.21846
-8.2184
-8.21835
-8.2183
-8.21825
-8.2182
-8.21815
-8.2181
-8.21805
-8.218
-8.21795
-8.21791
-8.21786
-8.21781
-8.21776
-8.21771
-8.21766
-8.21761
-8.21755
-8.21748
-8.21739
-8.21726
-8.21707
-8.21676
-8.21624
-8.2154
-8.21407
-8.21219
-8.20989
-8.2265
-8.22423
-8.22236
-8.22102
-8.22016
-8.21962
-8.21929
-8.21907
-8.21893
-8.21883
-8.21874
-8.21868
-8.21861
-8.21856
-8.2185
-8.21845
-8.2184
-8.21835
-8.2183
-8.21825
-8.2182
-8.21815
-8.21811
-8.21806
-8.21801
-8.21797
-8.21792
-8.21787
-8.21782
-8.21776
-8.2177
-8.21761
-8.21749
-8.21729
-8.21698
-8.21645
-8.21557
-8.21416
-8.21212
-8.20958
-8.22691
-8.22465
-8.22276
-8.2214
-8.22049
-8.21992
-8.21957
-8.21934
-8.21919
-8.21908
-8.21899
-8.21892
-8.21885
-8.21879
-8.21873
-8.21868
-8.21862
-8.21857
-8.21851
-8.21846
-8.21841
-8.21836
-8.21831
-8.21827
-8.21822
-8.21818
-8.21813
-8.21808
-8.21803
-8.21798
-8.21791
-8.21783
-8.21771
-8.21753
-8.21722
-8.21668
-8.21576
-8.21426
-8.21205
-8.20926
-8.22732
-8.22507
-8.22317
-8.22178
-8.22085
-8.22025
-8.21987
-8.21963
-8.21947
-8.21936
-8.21927
-8.21919
-8.21913
-8.21906
-8.219
-8.21894
-8.21888
-8.21882
-8.21876
-8.21871
-8.21865
-8.2186
-8.21855
-8.2185
-8.21845
-8.2184
-8.21835
-8.21831
-8.21826
-8.21821
-8.21814
-8.21807
-8.21795
-8.21777
-8.21747
-8.21693
-8.21598
-8.21439
-8.212
-8.20894
-8.2277
-8.22548
-8.22359
-8.22218
-8.22122
-8.2206
-8.22021
-8.21996
-8.21979
-8.21968
-8.21959
-8.21951
-8.21944
-8.21938
-8.21931
-8.21925
-8.21918
-8.21912
-8.21905
-8.21899
-8.21893
-8.21887
-8.21881
-8.21876
-8.2187
-8.21865
-8.2186
-8.21855
-8.21851
-8.21845
-8.2184
-8.21832
-8.21822
-8.21805
-8.21775
-8.21721
-8.21623
-8.21455
-8.21197
-8.20862
-8.22808
-8.22588
-8.224
-8.22259
-8.22161
-8.22098
-8.22058
-8.22032
-8.22016
-8.22005
-8.21996
-8.21989
-8.21982
-8.21975
-8.21968
-8.21961
-8.21954
-8.21947
-8.21939
-8.21932
-8.21926
-8.21919
-8.21912
-8.21906
-8.219
-8.21895
-8.21889
-8.21884
-8.21879
-8.21874
-8.21868
-8.21861
-8.21851
-8.21835
-8.21806
-8.21752
-8.21652
-8.21475
-8.21197
-8.2083
-8.22844
-8.22628
-8.22443
-8.22302
-8.22203
-8.22139
-8.22098
-8.22073
-8.22057
-8.22046
-8.22038
-8.22031
-8.22025
-8.22018
-8.22011
-8.22004
-8.21996
-8.21988
-8.2198
-8.21972
-8.21965
-8.21957
-8.2195
-8.21943
-8.21936
-8.21929
-8.21923
-8.21918
-8.21912
-8.21906
-8.21901
-8.21894
-8.21884
-8.21869
-8.21841
-8.21788
-8.21685
-8.21499
-8.212
-8.20799
-8.22879
-8.22668
-8.22485
-8.22346
-8.22248
-8.22183
-8.22142
-8.22118
-8.22103
-8.22093
-8.22086
-8.2208
-8.22074
-8.22068
-8.22061
-8.22053
-8.22045
-8.22036
-8.22028
-8.22019
-8.2201
-8.22002
-8.21994
-8.21986
-8.21978
-8.21971
-8.21964
-8.21957
-8.21951
-8.21945
-8.21938
-8.21931
-8.21922
-8.21907
-8.2188
-8.21827
-8.21723
-8.21528
-8.21207
-8.20768
-8.22911
-8.22707
-8.22529
-8.22392
-8.22295
-8.22231
-8.22191
-8.22167
-8.22153
-8.22145
-8.22139
-8.22134
-8.22129
-8.22123
-8.22117
-8.22109
-8.22101
-8.22092
-8.22083
-8.22073
-8.22064
-8.22054
-8.22045
-8.22036
-8.22027
-8.22019
-8.22011
-8.22003
-8.21996
-8.21989
-8.21982
-8.21975
-8.21965
-8.21951
-8.21924
-8.21872
-8.21765
-8.21561
-8.21217
-8.20738
-8.22943
-8.22746
-8.22574
-8.22441
-8.22346
-8.22283
-8.22244
-8.22221
-8.22209
-8.22202
-8.22198
-8.22194
-8.2219
-8.22185
-8.22179
-8.22172
-8.22163
-8.22154
-8.22145
-8.22134
-8.22124
-8.22114
-8.22104
-8.22094
-8.22084
-8.22074
-8.22065
-8.22057
-8.22048
-8.2204
-8.22032
-8.22024
-8.22014
-8.21999
-8.21973
-8.21921
-8.21813
-8.21601
-8.21232
-8.20709
-8.22972
-8.22785
-8.22619
-8.22491
-8.22399
-8.22338
-8.22301
-8.2228
-8.2227
-8.22265
-8.22262
-8.2226
-8.22257
-8.22253
-8.22247
-8.2224
-8.22232
-8.22223
-8.22213
-8.22202
-8.22192
-8.22181
-8.22169
-8.22159
-8.22148
-8.22137
-8.22127
-8.22117
-8.22107
-8.22098
-8.22089
-8.22079
-8.22068
-8.22053
-8.22027
-8.21975
-8.21866
-8.21646
-8.21253
-8.20681
-8.22999
-8.22823
-8.22666
-8.22544
-8.22456
-8.22398
-8.22363
-8.22344
-8.22336
-8.22332
-8.2233
-8.2233
-8.22328
-8.22325
-8.2232
-8.22314
-8.22306
-8.22297
-8.22287
-8.22276
-8.22265
-8.22253
-8.22241
-8.2223
-8.22218
-8.22206
-8.22195
-8.22184
-8.22173
-8.22162
-8.22151
-8.2214
-8.22128
-8.22112
-8.22085
-8.22034
-8.21924
-8.21697
-8.21278
-8.20655
-8.23025
-8.2286
-8.22714
-8.22599
-8.22516
-8.22462
-8.2243
-8.22413
-8.22406
-8.22403
-8.22403
-8.22404
-8.22403
-8.22401
-8.22397
-8.22391
-8.22384
-8.22375
-8.22365
-8.22354
-8.22342
-8.2233
-8.22318
-8.22306
-8.22293
-8.22281
-8.22268
-8.22256
-8.22243
-8.22231
-8.22218
-8.22205
-8.22191
-8.22174
-8.22147
-8.22096
-8.21987
-8.21754
-8.2131
-8.20631
-8.23049
-8.22898
-8.22764
-8.22656
-8.2258
-8.2253
-8.22501
-8.22486
-8.22481
-8.2248
-8.22481
-8.22482
-8.22482
-8.2248
-8.22477
-8.22471
-8.22464
-8.22455
-8.22445
-8.22434
-8.22422
-8.2241
-8.22397
-8.22384
-8.22371
-8.22358
-8.22344
-8.22331
-8.22317
-8.22303
-8.22289
-8.22274
-8.22258
-8.22239
-8.22212
-8.22161
-8.22053
-8.21817
-8.21349
-8.20609
-8.23072
-8.22935
-8.22814
-8.22717
-8.22648
-8.22603
-8.22578
-8.22565
-8.22561
-8.2256
-8.22561
-8.22562
-8.22562
-8.2256
-8.22556
-8.22551
-8.22543
-8.22534
-8.22524
-8.22513
-8.22501
-8.22489
-8.22476
-8.22463
-8.22449
-8.22435
-8.22421
-8.22406
-8.22391
-8.22376
-8.2236
-8.22344
-8.22326
-8.22305
-8.22277
-8.22227
-8.22121
-8.21884
-8.21393
-8.2059
-8.23092
-8.22972
-8.22866
-8.2278
-8.22721
-8.22681
-8.22659
-8.22648
-8.22644
-8.22642
-8.22642
-8.22642
-8.22641
-8.22638
-8.22634
-8.22627
-8.2262
-8.2261
-8.226
-8.22589
-8.22577
-8.22564
-8.22551
-8.22537
-8.22523
-8.22509
-8.22494
-8.22479
-8.22463
-8.22447
-8.2243
-8.22412
-8.22392
-8.2237
-8.2234
-8.22292
-8.2219
-8.21955
-8.21445
-8.20575
-8.23111
-8.23009
-8.22919
-8.22846
-8.22795
-8.22763
-8.22742
-8.22733
-8.22727
-8.22724
-8.22722
-8.2272
-8.22716
-8.22712
-8.22705
-8.22698
-8.22689
-8.22679
-8.22668
-8.22657
-8.22644
-8.22632
-8.22618
-8.22605
-8.2259
-8.22576
-8.2256
-8.22545
-8.22528
-8.22511
-8.22493
-8.22474
-8.22453
-8.22429
-8.22399
-8.22352
-8.22256
-8.22024
-8.215
-8.20563
-8.23129
-8.23045
-8.22972
-8.22913
-8.22871
-8.22844
-8.22825
-8.22814
-8.22806
-8.228
-8.22795
-8.22789
-8.22783
-8.22775
-8.22767
-8.22757
-8.22747
-8.22737
-8.22725
-8.22713
-8.227
-8.22687
-8.22674
-8.2266
-8.22645
-8.2263
-8.22615
-8.22599
-8.22582
-8.22564
-8.22545
-8.22525
-8.22504
-8.22479
-8.22449
-8.22403
-8.22313
-8.22091
-8.21556
-8.20554
-8.23143
-8.23077
-8.2302
-8.22974
-8.22939
-8.22915
-8.22897
-8.22884
-8.22872
-8.22863
-8.22853
-8.22844
-8.22834
-8.22824
-8.22813
-8.22802
-8.2279
-8.22779
-8.22766
-8.22754
-8.22741
-8.22728
-8.22714
-8.227
-8.22685
-8.2267
-8.22654
-8.22637
-8.2262
-8.22602
-8.22582
-8.22562
-8.22539
-8.22514
-8.22484
-8.2244
-8.22356
-8.22148
-8.21608
-8.20547
-8.23153
-8.231
-8.23055
-8.23018
-8.22989
-8.22966
-8.22946
-8.2293
-8.22916
-8.22903
-8.2289
-8.22877
-8.22865
-8.22853
-8.2284
-8.22828
-8.22815
-8.22803
-8.2279
-8.22777
-8.22764
-8.2275
-8.22736
-8.22721
-8.22706
-8.22691
-8.22675
-8.22658
-8.2264
-8.22621
-8.22601
-8.2258
-8.22557
-8.22531
-8.225
-8.22456
-8.22373
-8.22171
-8.21632
-8.2053
-8.23157
-8.2311
-8.2307
-8.23037
-8.23009
-8.22986
-8.22966
-8.22949
-8.22933
-8.22917
-8.22903
-8.22889
-8.22875
-8.22862
-8.22849
-8.22836
-8.22823
-8.2281
-8.22797
-8.22784
-8.2277
-8.22756
-8.22742
-8.22727
-8.22712
-8.22696
-8.22679
-8.22662
-8.22644
-8.22625
-8.22604
-8.22583
-8.22559
-8.22532
-8.22499
-8.2245
-8.22358
-8.22146
-8.2161
-8.20508
-8.21685
-8.21655
-8.21633
-8.21616
-8.21604
-8.21593
-8.21583
-8.21574
-8.21565
-8.21556
-8.21547
-8.21539
-8.2153
-8.21521
-8.21513
-8.21505
-8.21496
-8.21488
-8.2148
-8.21472
-8.21464
-8.21455
-8.21447
-8.21439
-8.21431
-8.21423
-8.21415
-8.21407
-8.21398
-8.2139
-8.2138
-8.21371
-8.2136
-8.21349
-8.21338
-8.21327
-8.21317
-8.21309
-8.21304
-8.21302
-8.21702
-8.21655
-8.21629
-8.21613
-8.21602
-8.21592
-8.21582
-8.21573
-8.21564
-8.21556
-8.21547
-8.21538
-8.2153
-8.21522
-8.21513
-8.21505
-8.21496
-8.21488
-8.2148
-8.21472
-8.21464
-8.21456
-8.21448
-8.2144
-8.21432
-8.21423
-8.21415
-8.21407
-8.21399
-8.2139
-8.21381
-8.21371
-8.21361
-8.2135
-8.21339
-8.21328
-8.21318
-8.2131
-8.21304
-8.21302
-8.21737
-8.21668
-8.21632
-8.21613
-8.21601
-8.21592
-8.21583
-8.21574
-8.21565
-8.21556
-8.21548
-8.21539
-8.21531
-8.21523
-8.21514
-8.21506
-8.21497
-8.21489
-8.21481
-8.21473
-8.21465
-8.21457
-8.21449