/*--------------------------------*- C++ -*----------------------------------*\
  =========                 |
  \\      /  F ield         | OpenFOAM: The Open Source CFD Toolbox
   \\    /   O peration     | Website:  https://openfoam.org
    \\  /    A nd           | Version:  12
     \\/     M anipulation  |
\*---------------------------------------------------------------------------*/
FoamFile
{
    format      ascii;
    class       surfaceScalarField;
    location    "500";
    object      phi;
}
// * * * * * * * * * * * * * * * * * * * * * * * * * * * * * * * * * * * * * //

dimensions      [1 0 -1 0 0 0 0];

internalField   nonuniform List<scalar> 
22000
(
-2.08931e-08
2.43487e-08
-3.45565e-09
-2.94624e-08
1.22828e-08
-3.71352e-09
-2.94348e-08
2.12792e-09
-2.15549e-09
-2.70963e-08
-1.23111e-09
-1.1074e-09
-2.49233e-08
-1.62326e-09
-5.49781e-10
-2.3495e-08
-1.13413e-09
-2.9422e-10
-2.2637e-08
-6.71845e-10
-1.86181e-10
-2.21268e-08
-3.64839e-10
-1.45364e-10
-2.18173e-08
-1.80111e-10
-1.29466e-10
-2.16206e-08
-7.32252e-11
-1.23492e-10
-2.14859e-08
-1.37064e-11
-1.21033e-10
-2.13843e-08
1.79624e-11
-1.19586e-10
-2.13026e-08
3.54086e-11
-1.17186e-10
-2.12304e-08
4.30461e-11
-1.15222e-10
-2.1155e-08
4.03779e-11
-1.15849e-10
-2.10726e-08
3.2374e-11
-1.14779e-10
-2.09845e-08
2.42532e-11
-1.124e-10
-2.08925e-08
1.71359e-11
-1.09116e-10
-2.0797e-08
9.38105e-12
-1.04935e-10
-2.0708e-08
8.85807e-12
-9.78751e-11
-2.06371e-08
1.80594e-11
-8.89795e-11
-2.05979e-08
3.71221e-11
-7.63729e-11
-2.06071e-08
6.86116e-11
-5.9394e-11
-2.06835e-08
1.21848e-10
-4.5464e-11
-2.08554e-08
2.04271e-10
-3.24396e-11
-2.11492e-08
3.15087e-10
-2.13486e-11
-2.15873e-08
4.54908e-10
-1.67466e-11
-2.21823e-08
6.18723e-10
-2.37736e-11
-2.29273e-08
7.93882e-10
-4.89342e-11
-2.37902e-08
9.61737e-10
-9.88731e-11
-2.47006e-08
1.08874e-09
-1.7838e-10
-2.54772e-08
1.06136e-09
-2.84812e-10
-2.58027e-08
8.37671e-10
-5.12195e-10
-2.52996e-08
2.94517e-10
-7.97651e-10
-2.36859e-08
-5.12522e-10
-1.10113e-09
-2.05171e-08
-1.71765e-09
-1.45121e-09
-1.58399e-08
-3.00744e-09
-1.6698e-09
-1.00177e-08
-4.15717e-09
-1.66504e-09
-4.04289e-09
-4.69097e-09
-1.28383e-09
-3.53396e-09
-5.08937e-10
-1.82481e-08
4.73456e-08
-4.7488e-09
-3.10629e-08
2.97388e-08
-4.6413e-09
-3.6472e-08
9.6182e-09
-2.08119e-09
-3.72237e-08
7.15818e-10
-1.19524e-09
-3.68316e-08
-1.47125e-09
-5.44183e-10
-3.63596e-08
-1.35301e-09
-2.53105e-10
-3.59932e-08
-8.87024e-10
-1.51292e-10
-3.57511e-08
-4.93074e-10
-1.13892e-10
-3.55995e-08
-2.30369e-10
-1.01418e-10
-3.55059e-08
-6.88138e-11
-9.80124e-11
-3.54437e-08
2.17363e-11
-9.77034e-11
-3.5394e-08
6.63499e-11
-9.80943e-11
-3.53482e-08
8.49247e-11
-9.54019e-11
-3.52988e-08
8.56733e-11
-9.20511e-11
-3.52333e-08
7.00382e-11
-9.51505e-11
-3.51499e-08
4.34889e-11
-9.45289e-11
-3.50548e-08
2.06699e-11
-9.16176e-11
-3.49538e-08
4.26951e-12
-8.81202e-11
-3.4849e-08
-9.98237e-12
-8.54581e-11
-3.47573e-08
-3.44866e-12
-7.9448e-11
-3.46939e-08
2.40318e-11
-6.94012e-11
-3.46832e-08
7.25624e-11
-4.61985e-11
-3.47538e-08
1.75921e-10
-3.67235e-11
-3.49388e-08
3.37127e-10
-3.02511e-11
-3.5272e-08
5.58697e-10
-2.13433e-11
-3.57832e-08
8.42595e-10
-1.63381e-11
-3.64897e-08
1.17989e-09
-1.85097e-11
-3.73856e-08
1.54688e-09
-3.22391e-11
-3.84268e-08
1.89946e-09
-6.44287e-11
-3.9528e-08
2.18404e-09
-1.21203e-10
-4.05654e-08
2.25636e-09
-1.30182e-10
-4.12315e-08
1.98406e-09
-2.56649e-10
-4.10454e-08
1.18164e-09
-5.30082e-10
-3.95252e-08
-3.98482e-10
-8.27265e-10
-3.62917e-08
-2.51851e-09
-1.22759e-09
-3.07763e-08
-5.53359e-09
-1.6994e-09
-2.31916e-08
-8.61102e-09
-1.98119e-09
-1.42054e-08
-1.11554e-08
-1.98791e-09
-5.37633e-09
-1.20426e-08
-1.47752e-09
-8.41565e-09
-4.94653e-10
-1.23789e-08
6.42009e-08
-4.47648e-09
-2.44619e-08
4.56182e-08
-3.79644e-09
-3.2392e-08
1.87384e-08
-1.19011e-09
-3.61148e-08
5.34726e-09
-9.08645e-10
-3.75474e-08
2.6721e-10
-3.05853e-10
-3.82047e-08
-5.30213e-10
-1.65535e-10
-3.85435e-08
-4.61677e-10
-8.6653e-11
-3.87616e-08
-2.12171e-10
-6.275e-11
-3.89238e-08
-1.49754e-11
-5.32737e-11
-3.90557e-08
1.14516e-10
-5.14828e-11
-3.9163e-08
1.82002e-10
-5.30305e-11
-3.9245e-08
2.04855e-10
-5.65238e-11
-3.93069e-08
1.91764e-10
-4.49589e-11
-3.93436e-08
1.56648e-10
-3.4312e-11
-3.93443e-08
1.1383e-10
-4.31018e-11
-3.93169e-08
6.50227e-11
-4.90073e-11
-3.92727e-08
2.30615e-11
-4.65823e-11
-3.92187e-08
-5.0064e-12
-4.47623e-11
-3.91541e-08
-2.64195e-11
-4.81653e-11
-3.90996e-08
-2.20815e-11
-3.59033e-11
-3.90706e-08
1.68208e-11
-2.18655e-11
-3.9098e-08
1.1317e-10
-1.31873e-11
-3.9201e-08
2.9675e-10
-1.79351e-11
-3.9413e-08
5.61259e-10
-1.21657e-11
-3.97615e-08
9.15482e-10
-8.31614e-12
-4.02666e-08
1.35368e-09
-6.01086e-12
-4.09324e-08
1.8526e-09
-6.95327e-12
-4.17361e-08
2.36434e-09
-1.37689e-11
-4.26208e-08
2.81623e-09
-3.21556e-11
-4.35252e-08
3.08402e-09
4.43607e-12
-4.42686e-08
2.95334e-09
4.6321e-11
-4.45167e-08
2.35868e-09
-1.26487e-10
-4.39877e-08
8.86018e-10
-2.33474e-10
-4.20305e-08
-1.77094e-09
-5.84725e-10
-3.84582e-08
-5.24005e-09
-8.50751e-10
-3.24161e-08
-1.00833e-08
-1.49251e-09
-2.42499e-08
-1.49964e-08
-1.78088e-09
-1.47715e-08
-1.87978e-08
-1.83608e-09
-5.52985e-09
-1.99128e-08
-1.37144e-09
-1.35369e-08
-4.08593e-10
-7.84948e-09
7.57377e-08
-3.6874e-09
-1.89022e-08
5.93461e-08
-2.67518e-09
-2.64644e-08
2.76612e-08
-1.36067e-09
-3.17453e-08
1.1082e-08
-4.53799e-10
-3.45143e-08
3.20782e-09
-1.71707e-10
-3.59733e-08
1.00337e-09
-7.45839e-11
-3.68769e-08
4.84565e-10
-4.26591e-11
-3.74924e-08
4.25309e-10
-2.20387e-11
-3.79474e-08
4.54889e-10
-1.48756e-11
-3.8301e-08
4.79278e-10
-1.12687e-11
-3.85828e-08
4.74343e-10
-1.05228e-11
-3.88083e-08
4.40917e-10
-1.05859e-11
-3.89896e-08
3.81437e-10
-8.48242e-12
-3.91312e-08
3.07922e-10
-9.70883e-12
-3.92331e-08
2.30827e-10
-1.51305e-11
-3.9299e-08
1.52716e-10
-2.18157e-11
-3.93319e-08
7.39101e-11
-1.79449e-11
-3.93361e-08
8.68446e-12
-9.55035e-12
-3.93221e-08
-2.85723e-11
-1.18293e-11
-3.93066e-08
-3.05147e-11
-7.10436e-12
-3.93111e-08
1.49124e-11
6.37074e-12
-3.93515e-08
1.57447e-10
-3.90382e-12
-3.94474e-08
4.01922e-10
-9.26042e-12
-3.9616e-08
7.39851e-10
-1.00015e-11
-3.98819e-08
1.18944e-09
-8.15976e-12
-4.0259e-08
1.73493e-09
-4.17964e-12
-4.07498e-08
2.33911e-09
4.31882e-12
-4.13334e-08
2.93283e-09
1.50173e-11
-4.19794e-08
3.42128e-09
4.09719e-11
-4.26749e-08
3.62397e-09
1.5545e-10
-4.31563e-08
3.29464e-09
1.4009e-10
-4.32049e-08
2.31831e-09
8.88861e-11
-4.26954e-08
3.47448e-10
2.90465e-11
-4.07768e-08
-3.30415e-09
-3.85422e-10
-3.76013e-08
-8.1663e-09
-2.49281e-10
-3.18244e-08
-1.46248e-08
-1.23538e-09
-2.39169e-08
-2.14841e-08
-1.41971e-09
-1.46866e-08
-2.64926e-08
-1.53548e-09
-5.54662e-09
-2.78347e-08
-1.21811e-09
-1.87492e-08
-3.34357e-10
-4.85105e-09
8.3454e-08
-2.86523e-09
-1.41924e-08
7.06259e-08
-1.93853e-09
-2.15468e-08
3.63434e-08
-1.32781e-09
-2.70092e-08
1.62713e-08
2.73058e-10
-3.04416e-08
6.79262e-09
-1.52432e-10
-3.23719e-08
2.91561e-09
1.80246e-11
-3.36183e-08
1.73475e-09
-3.78181e-12
-3.45022e-08
1.29882e-09
1.03358e-11
-3.51739e-08
1.11464e-09
1.19694e-11
-3.57053e-08
9.95e-10
1.55897e-11
-3.61359e-08
8.87572e-10
1.72992e-11
-3.64887e-08
7.75446e-10
1.82441e-11
-3.67806e-08
6.54177e-10
1.9196e-11
-3.70202e-08
5.28809e-10
1.86006e-11
-3.72095e-08
4.04361e-10
1.57857e-11
-3.73527e-08
2.83425e-10
1.24118e-11
-3.74575e-08
1.68844e-10
9.82944e-12
-3.75298e-08
7.36569e-11
7.31478e-12
-3.75765e-08
1.52561e-11
2.93176e-12
-3.761e-08
4.27765e-12
-1.31847e-12
-3.76564e-08
5.91122e-11
2.09067e-12
-3.77082e-08
2.20562e-10
-1.12689e-11
-3.7784e-08
4.94933e-10
-1.72747e-11
-3.78909e-08
8.6995e-10
-2.32159e-11
-3.80527e-08
1.37292e-09
-2.16932e-11
-3.828e-08
1.97763e-09
-1.54446e-11
-3.85742e-08
2.62989e-09
3.37967e-12
-3.89298e-08
3.25267e-09
3.56627e-11
-3.93554e-08
3.71523e-09
1.31665e-10
-3.98256e-08
3.84911e-09
2.45016e-10
-4.01085e-08
3.37609e-09
2.01455e-10
-4.01779e-08
2.10096e-09
2.86713e-10
-4.00004e-08
-3.69429e-10
5.39345e-10
-3.86008e-08
-4.76053e-09
5.67512e-11
-3.57176e-08
-1.09287e-08
-1.20814e-10
-3.08112e-08
-1.88169e-08
-7.14335e-10
-2.31474e-08
-2.7577e-08
-1.5709e-09
-1.44906e-08
-3.40447e-08
-1.10466e-09
-5.58169e-09
-3.57167e-08
-1.02697e-09
-2.40575e-08
-2.73404e-10
-2.74336e-09
8.82551e-08
-2.05784e-09
-1.03095e-08
7.94163e-08
-1.22423e-09
-1.79235e-08
4.3935e-08
2.2452e-11
-2.26043e-08
2.09548e-08
-2.70838e-12
-2.62499e-08
1.02389e-08
1.99401e-10
-2.84913e-08
5.05612e-09
1.00823e-10
-2.9909e-08
3.09294e-09
5.94941e-11
-3.09423e-08
2.29104e-09
4.10474e-11
-3.17448e-08
1.88019e-09
3.68694e-11
-3.23954e-08
1.60938e-09
3.61583e-11
-3.29345e-08
1.3905e-09
3.61587e-11
-3.33868e-08
1.19184e-09
3.59318e-11
-3.37691e-08
1.0011e-09
3.53328e-11
-3.40911e-08
8.16853e-10
3.38444e-11
-3.43578e-08
6.39953e-10
3.1169e-11
-3.4575e-08
4.7279e-10
2.77255e-11
-3.47501e-08
3.19999e-10
2.39833e-11
-3.48888e-08
1.93055e-10
1.92939e-11
-3.49937e-08
1.07414e-10
1.26541e-11
-3.5073e-08
7.82111e-11
5.4041e-12
-3.51389e-08
1.26001e-10
-1.04535e-12
-3.51882e-08
2.82336e-10
-1.25023e-11
-3.52387e-08
5.65171e-10
-1.97065e-11
-3.52785e-08
9.3799e-10
-2.82722e-11
-3.53351e-08
1.45209e-09
-2.2603e-11
-3.54311e-08
2.08867e-09
-1.50895e-11
-3.55715e-08
2.75861e-09
1.16448e-11
-3.57623e-08
3.38156e-09
6.18738e-11
-3.60227e-08
3.81611e-09
1.59451e-10
-3.62732e-08
3.88984e-09
2.09728e-10
-3.64921e-08
3.30487e-09
2.90093e-10
-3.68446e-08
1.87334e-09
5.80075e-10
-3.66775e-08
-1.1589e-09
6.22437e-10
-3.58349e-08
-6.30054e-09
6.97315e-10
-3.33455e-08
-1.34232e-08
5.1112e-12
-2.93135e-08
-2.2874e-08
2.50878e-11
-2.23678e-08
-3.31077e-08
-1.41508e-09
-1.42185e-08
-4.11052e-08
-1.08886e-09
-5.58269e-09
-4.3593e-08
-7.59526e-10
-2.94062e-08
-2.33961e-10
-1.37482e-09
9.10776e-08
-1.44766e-09
-7.51335e-09
8.62659e-08
-7.11126e-10
-1.46432e-08
5.06518e-08
4.12924e-10
-1.90906e-08
2.55928e-08
-1.90732e-10
-2.23696e-08
1.3174e-08
3.43859e-10
-2.47515e-08
7.30892e-09
1.29082e-10
-2.62605e-08
4.50419e-09
9.77139e-11
-2.73516e-08
3.31673e-09
6.54228e-11
-2.82118e-08
2.68523e-09
5.50883e-11
-2.89211e-08
2.26813e-09
5.05449e-11
-2.95202e-08
1.94087e-09
4.86742e-11
-3.00327e-08
1.65688e-09
4.7427e-11
-3.04744e-08
1.39673e-09
4.60025e-11
-3.08555e-08
1.15389e-09
4.4032e-11
-3.11823e-08
9.25671e-10
4.11052e-11
-3.14605e-08
7.13696e-10
3.7226e-11
-3.16952e-08
5.22435e-10
3.22288e-11
-3.18897e-08
3.61688e-10
2.58493e-11
-3.20454e-08
2.45285e-10
1.78256e-11
-3.21658e-08
1.89818e-10
8.72985e-12
-3.22559e-08
2.16325e-10
-2.39616e-13
-3.23168e-08
3.5306e-10
-9.81803e-12
-3.23621e-08
6.2096e-10
-1.04609e-11
-3.23477e-08
9.63618e-10
-4.00952e-11
-3.23299e-08
1.47102e-09
-3.68016e-11
-3.23228e-08
2.10868e-09
-2.71047e-11
-3.23435e-08
2.774e-09
5.2473e-12
-3.24066e-08
3.36761e-09
7.70464e-11
-3.25339e-08
3.78279e-09
1.60597e-10
-3.26757e-08
3.7833e-09
2.48288e-10
-3.2848e-08
3.13549e-09
3.41675e-10
-3.3309e-08
1.56119e-09
7.73048e-10
-3.3128e-08
-1.92667e-09
5.86775e-10
-3.25422e-08
-7.64911e-09
7.62762e-10
-3.07884e-08
-1.56815e-08
5.04443e-10
-2.7463e-08
-2.64538e-08
2.54429e-10
-2.15108e-08
-3.82737e-08
-7.86242e-10
-1.37653e-08
-4.8036e-08
-8.14694e-10
-5.57731e-09
-5.12384e-08
-5.42542e-10
-3.47832e-08
-2.00364e-10
-4.64061e-10
9.25766e-08
-1.03493e-09
-5.36965e-09
9.15848e-08
-4.13303e-10
-1.16287e-08
5.66175e-08
2.93397e-10
-1.63564e-08
2.99561e-08
3.64383e-10
-1.9173e-08
1.57303e-08
2.60254e-10
-2.13774e-08
9.2451e-09
2.68209e-10
-2.2912e-08
5.9361e-09
1.02638e-10
-2.39941e-08
4.30836e-09
9.04089e-11
-2.48486e-08
3.47135e-09
6.83561e-11
-2.55591e-08
2.91727e-09
6.13013e-11
-2.61678e-08
2.49255e-09
5.70644e-11
-2.66971e-08
2.13145e-09
5.45997e-11
-2.71612e-08
1.80862e-09
5.22795e-11
-2.75706e-08
1.51337e-09
4.97961e-11
-2.79309e-08
1.23948e-09
4.64835e-11
-2.82472e-08
9.87675e-10
4.23149e-11
-2.8523e-08
7.61328e-10
3.69403e-11
-2.87601e-08
5.68698e-10
3.00716e-11
-2.8958e-08
4.21761e-10
2.13851e-11
-2.91163e-08
3.3709e-10
1.0985e-11
-2.92344e-08
3.34968e-10
-5.8405e-13
-2.93088e-08
4.41952e-10
-1.44987e-11
-2.9346e-08
6.70401e-10
-1.2201e-11
-2.93183e-08
9.66852e-10
-3.09782e-11
-2.92645e-08
1.45023e-09
-3.30947e-11
-2.91919e-08
2.05918e-09
-2.31165e-11
-2.9121e-08
2.6978e-09
5.33804e-12
-2.90834e-08
3.26164e-09
6.8304e-11
-2.91001e-08
3.64628e-09
1.53175e-10
-2.91728e-08
3.57847e-09
2.77459e-10
-2.92466e-08
2.82344e-09
3.85824e-10
-2.94904e-08
1.18591e-09
6.1908e-10
-2.95234e-08
-2.69328e-09
7.99631e-10
-2.92112e-08
-8.86674e-09
9.05383e-10
-2.79935e-08
-1.76977e-08
7.98422e-10
-2.54328e-08
-2.95905e-08
5.76019e-10
-2.0374e-08
-4.29835e-08
-3.48983e-10
-1.31832e-08
-5.46193e-08
-6.07599e-10
-5.45708e-09
-5.8599e-08
-3.65536e-10
-4.00986e-08
-1.41668e-10
2.21927e-10
9.30631e-08
-7.08415e-10
-3.64868e-09
9.55676e-08
-1.1219e-10
-9.1821e-09
6.16399e-08
5.10973e-10
-1.38744e-08
3.38925e-08
7.55969e-10
-1.67226e-08
1.82804e-08
2.98058e-10
-1.84837e-08
1.0851e-08
1.55245e-10
-1.99254e-08
7.22491e-09
1.5288e-10
-2.09767e-08
5.25152e-09
1.08044e-10
-2.17812e-08
4.19429e-09
8.15556e-11
-2.24463e-08
3.51393e-09
6.83147e-11
-2.30188e-08
3.00278e-09
6.2309e-11
-2.35221e-08
2.57612e-09
5.85242e-11
-2.39701e-08
2.2011e-09
5.54924e-11
-2.43732e-08
1.86366e-09
5.27803e-11
-2.4736e-08
1.55297e-09
4.92868e-11
-2.50629e-08
1.26942e-09
4.51374e-11
-2.53561e-08
1.01477e-09
3.97891e-11
-2.56163e-08
7.95818e-10
3.30672e-11
-2.58412e-08
6.22122e-10
2.44973e-11
-2.60273e-08
5.09252e-10
1.393e-11
-2.61694e-08
4.7557e-10
1.47285e-12
-2.62579e-08
5.4448e-10
-1.40391e-11
-2.6297e-08
7.28988e-10
-1.9516e-11
-2.62994e-08
9.84982e-10
-1.57678e-11
-2.62229e-08
1.40103e-09
-2.73583e-11
-2.61082e-08
1.96407e-09
-1.96079e-11
-2.59717e-08
2.55601e-09
5.28385e-12
-2.58517e-08
3.08734e-09
5.42829e-11
-2.57632e-08
3.41798e-09
1.39734e-10
-2.57364e-08
3.28562e-09
2.66014e-10
-2.5725e-08
2.40408e-09
4.07927e-10
-2.58323e-08
7.0581e-10
5.87399e-10
-2.59154e-08
-3.46559e-09
8.5536e-10
-2.57794e-08
-9.99502e-09
9.92236e-10
-2.50037e-08
-1.948e-08
1.00666e-09
-2.30889e-08
-3.23152e-08
8.0992e-10
-1.90404e-08
-4.71686e-08
1.36544e-10
-1.25176e-08
-6.06956e-08
-4.46397e-10
-5.28864e-09
-6.55918e-08
-2.36178e-10
-4.53067e-08
-8.05045e-11
6.4662e-10
9.2927e-08
-5.10563e-10
-2.3961e-09
9.85712e-08
3.90077e-11
-7.23569e-09
6.59576e-08
5.21874e-10
-1.15816e-08
3.76088e-08
6.29523e-10
-1.45187e-08
2.08332e-08
3.84371e-10
-1.61988e-08
1.23722e-08
1.58864e-10
-1.73795e-08
8.24918e-09
1.5639e-10
-1.83471e-08
6.09731e-09
1.21727e-10
-1.907e-08
4.82851e-09
8.86619e-11
-1.96496e-08
4.02141e-09
7.21116e-11
-2.01468e-08
3.43538e-09
6.45647e-11
-2.05855e-08
2.95497e-09
5.97644e-11
-2.09804e-08
2.53989e-09
5.60772e-11
-2.13435e-08
2.17298e-09
5.37569e-11
-2.16769e-08
1.83633e-09
5.00362e-11
-2.19848e-08
1.53124e-09
4.61072e-11
-2.22687e-08
1.25755e-09
4.1063e-11
-2.25286e-08
1.02074e-09
3.49929e-11
-2.27606e-08
8.2698e-10
2.71587e-11
-2.29595e-08
6.90628e-10
1.74792e-11
-2.31172e-08
6.27482e-10
5.79216e-12
-2.32215e-08
6.57375e-10
-8.67749e-12
-2.32727e-08
7.95908e-10
-1.56628e-11
-2.32961e-08
1.01448e-09
-6.12879e-12
-2.32225e-08
1.35361e-09
-2.61997e-11
-2.30918e-08
1.85102e-09
-1.77014e-11
-2.29193e-08
2.37969e-09
3.78024e-12
-2.27305e-08
2.84781e-09
5.06815e-11
-2.25536e-08
3.11126e-09
1.29832e-10
-2.24254e-08
2.90499e-09
2.52325e-10
-2.2344e-08
1.93403e-09
3.88715e-10
-2.23155e-08
1.13768e-10
5.63442e-10
-2.24088e-08
-4.2401e-09
8.67817e-10
-2.23921e-08
-1.10488e-08
1.03701e-09
-2.19512e-08
-2.1069e-08
1.14813e-09
-2.06154e-08
-3.46658e-08
1.01475e-09
-1.75345e-08
-5.08411e-08
5.91607e-10
-1.17176e-08
-6.61476e-08
-3.64983e-10
-5.05386e-09
-7.20788e-08
-1.76662e-10
-5.03586e-08
-1.9406e-12
9.51898e-10
9.23512e-08
-3.76144e-10
-1.42488e-09
1.00808e-07
1.39676e-10
-5.64621e-09
6.96601e-08
5.18832e-10
-9.63103e-09
4.10093e-08
5.84389e-10
-1.24694e-08
2.32325e-08
4.3894e-10
-1.42934e-08
1.38722e-08
3.24042e-10
-1.53344e-08
9.15259e-09
1.37516e-10
-1.60932e-08
6.74252e-09
1.13616e-10
-1.67187e-08
5.35627e-09
9.7631e-11
-1.719e-08
4.41955e-09
7.30991e-11
-1.75833e-08
3.76365e-09
6.50387e-11
-1.79271e-08
3.23972e-09
5.90483e-11
-1.82383e-08
2.79671e-09
5.43679e-11
-1.85314e-08
2.41285e-09
5.31741e-11
-1.88061e-08
2.062e-09
4.89954e-11
-1.90668e-08
1.74646e-09
4.54262e-11
-1.93145e-08
1.4645e-09
4.07665e-11
-1.95498e-08
1.22028e-09
3.57849e-11
-1.97669e-08
1.01521e-09
2.88885e-11
-1.996e-08
8.63133e-10
2.05729e-11
-2.01199e-08
7.76996e-10
1.03704e-11
-2.02339e-08
7.73786e-10
-2.4287e-12
-2.02945e-08
8.67923e-10
-1.14619e-11
-2.0318e-08
1.0429e-09
-4.98835e-12
-2.02628e-08
1.31501e-09
-1.65665e-11
-2.0131e-08
1.73137e-09
-1.21929e-11
-1.99369e-08
2.17908e-09
6.50168e-12
-1.97037e-08
2.56651e-09
4.80738e-11
-1.94621e-08
2.74855e-09
1.21056e-10
-1.92541e-08
2.46253e-09
2.34461e-10
-1.91151e-08
1.42115e-09
3.73799e-10
-1.89946e-08
-5.34629e-10
5.27897e-10
-1.90778e-08
-4.99051e-09
8.33602e-10
-1.91509e-08
-1.19908e-08
1.01501e-09
-1.89559e-08
-2.24146e-08
1.15061e-09
-1.81078e-08
-3.66756e-08
1.16156e-09
-1.58145e-08
-5.40697e-08
9.35343e-10
-1.08511e-08
-7.09811e-08
-1.29826e-10
-4.78885e-09
-7.80427e-08
-9.83897e-11
-5.51889e-08
4.13978e-11
1.16352e-09
9.14289e-08
-2.41195e-10
-6.77445e-10
1.02431e-07
2.18253e-10
-4.35946e-09
7.2832e-08
5.10092e-10
-8.03081e-09
4.41057e-08
5.74843e-10
-1.07536e-08
2.54892e-08
4.66155e-10
-1.24879e-08
1.53303e-08
2.76104e-10
-1.35848e-08
1.00837e-08
1.65805e-10
-1.42271e-08
7.29289e-09
9.18513e-11
-1.46981e-08
5.73794e-09
8.92545e-11
-1.50501e-08
4.70741e-09
6.41066e-11
-1.5327e-08
3.97925e-09
6.12599e-11
-1.55575e-08
3.41486e-09
5.53527e-11
-1.57625e-08
2.95441e-09
4.72714e-11
-1.5966e-08
2.56147e-09
5.48773e-11
-1.61588e-08
2.20799e-09
4.6764e-11
-1.6348e-08
1.89231e-09
4.33739e-11
-1.6536e-08
1.61363e-09
3.88261e-11
-1.67237e-08
1.37279e-09
3.52434e-11
-1.69039e-08
1.16613e-09
2.92288e-11
-1.70707e-08
1.0075e-09
2.24463e-11
-1.72147e-08
9.06996e-10
1.40088e-11
-1.73236e-08
8.79076e-10
3.55527e-12
-1.73842e-08
9.34528e-10
-6.0005e-12
-1.73986e-08
1.06176e-09
-4.4509e-12
-1.73554e-08
1.27723e-09
-5.49477e-12
-1.72257e-08
1.60794e-09
-6.24344e-12
-1.70218e-08
1.96439e-09
1.07353e-11
-1.67622e-08
2.26001e-09
4.68689e-11
-1.64767e-08
2.34999e-09
1.12978e-10
-1.62082e-08
1.98364e-09
2.10416e-10
-1.60392e-08
8.84431e-10
3.67705e-10
-1.58546e-08
-1.20941e-09
4.90136e-10
-1.59338e-08
-5.70109e-09
7.89756e-10
-1.61083e-08
-1.27973e-08
9.80911e-10
-1.61639e-08
-2.34545e-08
1.09551e-09
-1.56714e-08
-3.83263e-08
1.15825e-09
-1.39311e-08
-5.68054e-08
9.95401e-10
-9.91227e-09
-7.51849e-08
1.84945e-10
-4.50005e-09
-8.3471e-08
1.60802e-11
-5.97524e-08
6.3514e-11
1.26109e-09
9.03165e-08
-1.48712e-10
-1.29191e-10
1.03578e-07
2.43618e-10
-3.35192e-09
7.5586e-08
4.68706e-10
-6.74454e-09
4.69792e-08
5.19111e-10
-9.35936e-09
2.77138e-08
3.90167e-10
-1.10359e-08
1.6749e-08
2.57835e-10
-1.20639e-08
1.09134e-08
1.98273e-10
-1.26747e-08
7.77385e-09
1.2985e-10
-1.30013e-08
5.99507e-09
6.93762e-11
-1.32191e-08
4.85929e-09
6.59844e-11
-1.3368e-08
4.07058e-09
5.75008e-11
-1.34768e-08
3.47275e-09
5.08365e-11
-1.35685e-08
2.9979e-09
4.82064e-11
-1.36579e-08
2.60508e-09
4.58072e-11
-1.37516e-08
2.26062e-09
4.10195e-11
-1.38523e-08
1.95456e-09
3.84885e-11
-1.39624e-08
1.6899e-09
3.38115e-11
-1.40857e-08
1.4613e-09
3.48059e-11
-1.42099e-08
1.26212e-09
2.8189e-11
-1.43309e-08
1.10556e-09
2.28758e-11
-1.44398e-08
9.99665e-10
1.62471e-11
-1.45246e-08
9.54928e-10
9.00524e-12
-1.45679e-08
9.79027e-10
-1.30981e-12
-1.45715e-08
1.06325e-09
2.15823e-12
-1.45227e-08
1.22929e-09
-9.18362e-13
-1.43912e-08
1.47628e-09
1.36114e-13
-1.41818e-08
1.73921e-09
1.57563e-11
-1.39074e-08
1.93765e-09
4.79417e-11
-1.35934e-08
1.92661e-09
1.09389e-10
-1.32783e-08
1.48145e-09
1.87016e-10
-1.31074e-08
3.3149e-10
3.82056e-10
-1.28548e-08
-1.8936e-09
4.31537e-10
-1.29037e-08
-6.38706e-09
7.34821e-10
-1.31242e-08
-1.35148e-08
9.38037e-10
-1.33513e-08
-2.43354e-08
1.10799e-09
-1.31954e-08
-3.96165e-08
1.13435e-09
-1.20406e-08
-5.89109e-08
9.50661e-10
-8.88854e-09
-7.86899e-08
3.52919e-10
-4.15957e-09
-8.82996e-08
9.96353e-11
-6.39892e-08
7.72069e-11
1.32974e-09
8.90812e-08
-9.44606e-11
3.1778e-10
1.04345e-07
2.44875e-10
-2.49457e-09
7.79678e-08
4.30572e-10
-5.61019e-09
4.96079e-08
4.86931e-10
-8.09319e-09
2.9807e-08
3.89787e-10
-9.76277e-09
1.81295e-08
2.8907e-10
-1.07562e-08
1.17172e-08
1.89629e-10
-1.129e-08
8.18263e-09
1.25027e-10
-1.15401e-08
6.16092e-09
8.41936e-11
-1.16426e-08
4.89526e-09
6.65046e-11
-1.16656e-08
4.03859e-09
5.49686e-11
-1.16533e-08
3.4129e-09
4.7534e-11
-1.16308e-08
2.928e-09
4.73938e-11
-1.16011e-08
2.54212e-09
3.32155e-11
-1.15887e-08
2.21308e-09
3.51627e-11
-1.15948e-08
1.92771e-09
3.29208e-11
-1.16191e-08
1.68313e-09
3.10647e-11
-1.16603e-08
1.47414e-09
2.83522e-11
-1.17142e-08
1.29137e-09
2.46758e-11
-1.17744e-08
1.1447e-09
2.11071e-11
-1.18318e-08
1.04077e-09
1.62477e-11
-1.18742e-08
9.86013e-10
1.12515e-11
-1.18865e-08
9.87022e-10
4.3445e-12
-1.18686e-08
1.03985e-09
5.47421e-12
-1.17989e-08
1.15663e-09
2.96028e-12
-1.16568e-08
1.32813e-09
5.99941e-12
-1.14404e-08
1.5025e-09
2.02383e-11
-1.11574e-08
1.60535e-09
4.93437e-11
-1.08315e-08
1.49398e-09
1.06689e-10
-1.04983e-08
9.75727e-10
1.72487e-10
-1.02864e-08
-2.13671e-10
3.33208e-10
-1.00261e-08
-2.56779e-09
4.13879e-10
-1.00696e-08
-7.00681e-09
6.63213e-10
-1.03427e-08
-1.41057e-08
8.64082e-10
-1.0727e-08
-2.49819e-08
1.03069e-09
-1.0883e-08
-4.05349e-08
1.07448e-09
-1.02684e-08
-6.05142e-08
9.88668e-10
-7.88341e-09
-8.15703e-08
4.95473e-10
-3.81045e-09
-9.25369e-08
1.64396e-10
-6.78864e-08
8.68154e-11
1.36469e-09
8.77579e-08
-4.14242e-11
6.66802e-10
1.04799e-07
2.44025e-10
-1.78195e-09
8.00232e-08
3.93392e-10
-4.64513e-09
5.20224e-08
4.48672e-10
-7.00182e-09
3.17957e-08
3.68016e-10
-8.60748e-09
1.94607e-08
2.74394e-10
-9.56941e-09
1.24787e-08
2.00442e-10
-1.00619e-08
8.54595e-09
1.29173e-10
-1.02432e-08
6.25414e-09
8.80178e-11
-1.0252e-08
4.83878e-09
6.52598e-11
-1.01676e-08
3.90306e-09
5.1147e-11
-1.00417e-08
3.24481e-09
4.21276e-11
-9.90605e-09
2.75497e-09
3.73843e-11
-9.77322e-09
2.37814e-09
3.11458e-11
-9.65932e-09
2.06981e-09
2.93682e-11
-9.57067e-09
1.81169e-09
2.73783e-11
-9.50685e-09
1.59233e-09
2.69843e-11
-9.46076e-09
1.4076e-09
2.04575e-11
-9.43688e-09
1.24697e-09
2.05191e-11
-9.42684e-09
1.11672e-09
1.79412e-11
-9.42121e-09
1.02037e-09
1.47575e-11
-9.40871e-09
9.62706e-10
1.07969e-11
-9.37786e-09
9.48084e-10
8.07049e-12
-9.32085e-09
9.75991e-10
6.83497e-12
-9.21975e-09
1.04917e-09
6.34027e-12
-9.05687e-09
1.15498e-09
1.02403e-11
-8.82722e-09
1.24965e-09
2.31699e-11
-8.53518e-09
1.26393e-09
4.93554e-11
-8.20334e-09
1.0635e-09
9.86121e-11
-7.86994e-09
4.77139e-10
1.65164e-10
-7.58264e-09
-7.55549e-10
2.54558e-10
-7.36234e-09
-3.19869e-09
4.10573e-10
-7.41873e-09
-7.54896e-09
5.98535e-10
-7.74992e-09
-1.4564e-08
7.89404e-10
-8.27543e-09
-2.5404e-08
9.47622e-10
-8.74721e-09
-4.1038e-08
9.74928e-10
-8.59432e-09
-6.16272e-08
9.60111e-10
-6.8881e-09
-8.38654e-08
5.88915e-10
-3.45172e-09
-9.61662e-08
1.92963e-10
-7.14242e-08
8.60288e-11
1.39445e-09
8.63716e-08
-8.13915e-12
9.72842e-10
1.04983e-07
2.36863e-10
-1.15453e-09
8.17826e-08
3.6791e-10
-3.78709e-09
5.42327e-08
4.22331e-10
-6.03271e-09
3.36828e-08
3.58465e-10
-7.60108e-09
2.07487e-08
2.80449e-10
-8.50674e-09
1.32038e-08
1.80484e-10
-8.93753e-09
8.86167e-09
1.15037e-10
-9.05817e-09
6.2872e-09
8.75614e-11
-8.98817e-09
4.70452e-09
6.42344e-11
-8.81397e-09
3.68068e-09
4.81696e-11
-8.59281e-09
2.98619e-09
3.74455e-11
-8.36088e-09
2.49229e-09
3.07404e-11
-8.13554e-09
2.12757e-09
2.52448e-11
-7.93178e-09
1.84347e-09
2.25889e-11
-7.75508e-09
1.61453e-09
2.04624e-11
-7.60651e-09
1.42455e-09
1.92221e-11
-7.48196e-09
1.2663e-09
1.67634e-11
-7.3812e-09
1.13039e-09
1.58235e-11
-7.29794e-09
1.01935e-09
1.41047e-11
-7.2242e-09
9.34464e-10
1.21668e-11
-7.15028e-09
8.78815e-10
9.96679e-12
-7.06527e-09
8.54974e-10
8.07706e-12
-6.95908e-09
8.62436e-10
7.34964e-12
-6.81671e-09
8.98855e-10
7.91358e-12
-6.62334e-09
9.49299e-10
1.22806e-11
-6.37243e-09
9.74877e-10
2.38406e-11
-6.06564e-09
9.09904e-10
4.72047e-11
-5.72155e-09
6.32538e-10
8.68502e-11
-5.38798e-09
-1.33879e-11
1.56931e-10
-5.06072e-09
-1.30184e-09
2.19026e-10
-4.86442e-09
-3.76069e-09
3.65683e-10
-4.94118e-09
-8.00032e-09
5.28108e-10
-5.3395e-09
-1.48797e-08
7.14022e-10
-6.05722e-09
-2.55754e-08
8.89181e-10
-6.74416e-09
-4.12826e-08
9.31535e-10
-6.93169e-09
-6.2293e-08
8.53323e-10
-5.90825e-09
-8.54951e-08
6.06273e-10
-3.08965e-09
-9.91965e-08
2.1175e-10
-7.45939e-08
8.0099e-11
1.44493e-09
8.49155e-08
1.11455e-11
1.27886e-09
1.04935e-07
2.14654e-10
-5.5747e-10
8.32623e-08
3.5661e-10
-2.96825e-09
5.62344e-08
4.09075e-10
-5.09558e-09
3.54533e-08
3.56837e-10
-6.59641e-09
2.19864e-08
2.63042e-10
-7.46516e-09
1.38852e-08
1.87348e-10
-7.86101e-09
9.1033e-09
1.54207e-10
-7.926e-09
6.2519e-09
1.00276e-10
-7.78931e-09
4.49846e-09
6.93551e-11
-7.54242e-09
3.38569e-09
4.80829e-11
-7.24573e-09
2.65505e-09
3.44379e-11
-6.93761e-09
2.15842e-09
2.57576e-11
-6.63871e-09
1.80874e-09
1.99324e-11
-6.3624e-09
1.55062e-09
1.6554e-11
-6.11396e-09
1.35179e-09
1.43098e-11
-5.89455e-09
1.1922e-09
1.29549e-11
-5.70088e-09
1.06118e-09
1.14478e-11
-5.53138e-09
9.5019e-10
1.07097e-11
-5.38034e-09
8.58609e-10
9.69289e-12
-5.24075e-09
7.86266e-10
8.61311e-12
-5.10413e-09
7.34718e-10
7.46345e-12
-4.96074e-09
7.04973e-10
6.5903e-12
-4.80042e-09
6.95547e-10
6.55211e-12
-4.61058e-09
7.01016e-10
7.97549e-12
-4.37888e-09
7.04892e-10
1.26795e-11
-4.09883e-09
6.71436e-10
2.33654e-11
-3.7716e-09
5.37217e-10
4.54232e-11
-3.41421e-09
1.96908e-10
7.8219e-11
-3.06483e-09
-5.05214e-10
1.42421e-10
-2.73405e-09
-1.83855e-09
2.05913e-10
-2.56351e-09
-4.25726e-09
3.26027e-10
-2.66082e-09
-8.344e-09
4.40995e-10
-3.12718e-09
-1.50161e-08
6.02738e-10
-3.96989e-09
-2.55081e-08
7.75377e-10
-4.99112e-09
-4.11197e-08
8.58332e-10
-5.60414e-09
-6.24007e-08
7.20744e-10
-5.02774e-09
-8.66439e-08
5.72401e-10
-2.7698e-09
-1.0176e-07
3.06026e-10
-7.74479e-08
8.4276e-11
1.4929e-09
8.33902e-08
3.24529e-11
1.59185e-09
1.04628e-07
2.08168e-10
5.79713e-11
8.44378e-08
3.58339e-10
-2.12404e-09
5.79967e-08
4.19626e-10
-4.11748e-09
3.70589e-08
3.87886e-10
-5.54824e-09
2.31065e-08
3.10628e-10
-6.38849e-09
1.44863e-08
2.39101e-10
-6.74766e-09
9.29275e-09
1.69698e-10
-6.76965e-09
6.15984e-09
1.1404e-10
-6.58464e-09
4.23691e-09
7.65311e-11
-6.28598e-09
3.03638e-09
5.06463e-11
-5.93643e-09
2.27182e-09
3.36791e-11
-5.57563e-09
1.77481e-09
2.28246e-11
-5.22547e-09
1.44267e-09
1.59155e-11
-4.89818e-09
1.21156e-09
1.17819e-11
-4.59843e-09
1.0428e-09
9.25462e-12
-4.32679e-09
9.12793e-10
7.79283e-12
-4.08041e-09
8.08075e-10
6.73833e-12
-3.85635e-09
7.19975e-10
6.15472e-12
-3.64927e-09
6.45942e-10
5.59101e-12
-3.45285e-09
5.84791e-10
5.05368e-12
-3.25963e-09
5.36928e-10
4.56215e-12
-3.0611e-09
5.02096e-10
4.32809e-12
-2.84823e-09
4.77854e-10
4.80054e-12
-2.61098e-09
4.57101e-10
6.63886e-12
-2.34016e-09
4.23018e-10
1.10336e-11
-2.03154e-09
3.42687e-10
2.00966e-11
-1.68924e-09
1.57474e-10
3.74162e-11
-1.33095e-09
-2.24404e-10
6.30002e-11
-9.78422e-10
-9.56786e-10
9.90313e-11
-6.82838e-10
-2.29726e-09
1.63112e-10
-5.48893e-10
-4.65377e-09
2.62553e-10
-6.88582e-10
-8.61788e-09
4.13567e-10
-1.18235e-09
-1.50828e-08
5.60545e-10
-2.07786e-09
-2.52934e-08
6.80768e-10
-3.2471e-09
-4.07143e-08
7.63859e-10
-4.17848e-09
-6.2163e-08
6.9369e-10
-4.13233e-09
-8.71945e-08
5.04548e-10
-2.42437e-09
-1.03718e-07
2.49795e-10
-7.99337e-08
6.14362e-11
1.60367e-09
8.17316e-08
5.4872e-11
1.99262e-09
1.04022e-07
2.1623e-10
7.46171e-10
8.53199e-08
3.64347e-10
-1.21016e-09
5.95074e-08
4.4569e-10
-3.06744e-09
3.84857e-08
4.30417e-10
-4.42296e-09
2.41053e-08
3.56768e-10
-5.2184e-09
1.50076e-08
2.74216e-10
-5.54509e-09
9.42206e-09
1.97371e-10
-5.53467e-09
6.0152e-09
1.34202e-10
-5.31584e-09
3.92936e-09
8.87082e-11
-4.9839e-09
2.64756e-09
5.68812e-11
-4.6027e-09
1.85488e-09
3.57519e-11
-4.21232e-09
1.36216e-09
2.22877e-11
-3.83432e-09
1.05081e-09
1.38771e-11
-3.47948e-09
8.4791e-10
8.83035e-12
-3.1513e-09
7.08798e-10
5.8444e-12
-2.84935e-09
6.0667e-10
4.19032e-12
-2.57035e-09
5.25858e-10
3.23161e-12
-2.31033e-09
4.57237e-10
2.72515e-12
-2.06395e-09
3.9715e-10
2.41347e-12
-1.82524e-09
3.43922e-10
2.16315e-12
-1.58755e-09
2.97171e-10
2.0554e-12
-1.34343e-09
2.55724e-10
2.22968e-12
-1.08516e-09
2.16466e-10
3.09963e-12
-8.04751e-10
1.71314e-10
5.35338e-12
-4.95595e-10
1.04457e-10
9.37665e-12
-1.54661e-10
-1.52447e-11
1.69705e-11
2.13513e-10
-2.41537e-10
3.08126e-11
5.94137e-10
-6.60477e-10
5.54297e-11
9.61573e-10
-1.41478e-09
9.05492e-11
1.25714e-09
-2.73986e-09
1.47022e-10
1.38283e-09
-5.00979e-09
2.30334e-10
1.21888e-09
-8.79639e-09
3.42462e-10
6.51806e-10
-1.49826e-08
4.66876e-10
-3.76676e-10
-2.48522e-08
5.87346e-10
-1.75081e-09
-4.00094e-08
6.69163e-10
-3.04802e-09
-6.15119e-08
6.46164e-10
-3.45858e-09
-8.72611e-08
4.77149e-10
-2.16073e-09
-1.05241e-07
2.24825e-10
-8.21452e-08
5.08281e-11
1.74614e-09
7.99204e-08
6.49777e-11
2.42911e-09
1.0311e-07
2.29582e-10
1.50519e-09
8.58519e-08
3.91868e-10
-2.01267e-10
6.07229e-08
4.9088e-10
-1.90439e-09
3.96981e-08
4.90693e-10
-3.1739e-09
2.49561e-08
4.18709e-10
-3.9199e-09
1.54268e-08
3.26788e-10
-4.21182e-09
9.47706e-09
2.3691e-10
-4.17338e-09
5.81527e-09
1.61485e-10
-3.93116e-09
3.58091e-09
1.06227e-10
-3.58145e-09
2.2308e-09
6.7059e-11
-3.18721e-09
1.4199e-09
4.07561e-11
-2.78818e-09
9.38924e-10
2.4221e-11
-2.40432e-09
6.53012e-10
1.39665e-11
-2.04453e-09
4.80315e-10
7.83103e-12
-1.71077e-09
3.70809e-10
4.25073e-12
-1.4012e-09
2.94758e-10
2.36126e-12
-1.11154e-09
2.34836e-10
1.38256e-12
-8.36747e-10
1.8156e-10
8.8864e-13
-5.71282e-10
1.30888e-10
7.99342e-13
-3.09354e-10
8.12718e-11
7.18119e-13
-4.46243e-11
3.18173e-11
6.13768e-13
2.29412e-10
-1.90764e-11
7.47071e-13
5.19277e-10
-7.50475e-11
1.62724e-12
8.31162e-10
-1.44072e-10
3.47616e-12
1.16999e-09
-2.41819e-10
7.42099e-12
1.53708e-09
-3.96952e-10
1.45894e-11
1.92682e-09
-6.57453e-10
2.61564e-11
2.32414e-09
-1.10311e-09
4.5295e-11
2.69733e-09
-1.86372e-09
7.57366e-11
2.98633e-09
-3.15184e-09
1.2298e-10
3.0953e-09
-5.31016e-09
1.91404e-10
2.89775e-09
-8.8823e-09
2.83462e-10
2.2674e-09
-1.47443e-08
3.91996e-10
1.13352e-09
-2.4219e-08
5.00635e-10
-4.17972e-10