/*--------------------------------*- C++ -*----------------------------------*\
  =========                 |
  \\      /  F ield         | OpenFOAM: The Open Source CFD Toolbox
   \\    /   O peration     | Website:  https://openfoam.org
    \\  /    A nd           | Version:  12
     \\/     M anipulation  |
\*---------------------------------------------------------------------------*/
FoamFile
{
    format      ascii;
    class       volScalarField;
    location    "500";
    object      rho;
}
// * * * * * * * * * * * * * * * * * * * * * * * * * * * * * * * * * * * * * //

dimensions      [1 -3 0 0 0 0 0];

internalField   nonuniform List<scalar> 
8000
(
1.14867
1.15965
1.16569
1.16841
1.16966
1.17034
1.17081
1.17119
1.17153
1.17185
1.17215
1.17243
1.17271
1.17298
1.17324
1.17349
1.17373
1.17397
1.17421
1.17443
1.17466
1.17488
1.1751
1.17532
1.17554
1.17576
1.17598
1.1762
1.17643
1.17667
1.17691
1.17718
1.17745
1.17776
1.17809
1.17845
1.17886
1.17931
1.1798
1.18033
1.14862
1.15962
1.16576
1.16847
1.16967
1.17032
1.17077
1.17114
1.17147
1.17178
1.17208
1.17236
1.17263
1.1729
1.17315
1.1734
1.17365
1.17388
1.17411
1.17434
1.17456
1.17478
1.175
1.17522
1.17543
1.17564
1.17585
1.17607
1.17628
1.1765
1.17673
1.17697
1.17723
1.17752
1.17784
1.17821
1.17864
1.17913
1.17969
1.1803
1.14837
1.15915
1.16539
1.16823
1.16948
1.17013
1.17057
1.17093
1.17125
1.17156
1.17185
1.17212
1.17239
1.17265
1.1729
1.17315
1.17339
1.17362
1.17385
1.17408
1.17429
1.17451
1.17472
1.17493
1.17513
1.17532
1.17552
1.17571
1.17589
1.17608
1.17627
1.17647
1.1767
1.17696
1.17727
1.17766
1.17815
1.17874
1.17944
1.18021
1.14802
1.15842
1.16471
1.1677
1.16904
1.16972
1.17017
1.17052
1.17084
1.17113
1.17141
1.17169
1.17195
1.1722
1.17245
1.17269
1.17293
1.17316
1.17339
1.17361
1.17382
1.17403
1.17424
1.17443
1.17462
1.17479
1.17496
1.17512
1.17527
1.17541
1.17556
1.17571
1.1759
1.17613
1.17645
1.17688
1.17747
1.17821
1.17911
1.1801
1.14766
1.15761
1.16387
1.16699
1.16842
1.16914
1.16959
1.16993
1.17024
1.17052
1.1708
1.17106
1.17132
1.17157
1.17181
1.17205
1.17228
1.17251
1.17273
1.17295
1.17316
1.17337
1.17356
1.17375
1.17392
1.17408
1.17422
1.17434
1.17445
1.17456
1.17466
1.17477
1.17493
1.17515
1.17549
1.17599
1.17669
1.17762
1.17873
1.17998
1.1473
1.15677
1.16295
1.16617
1.16768
1.16843
1.16888
1.16921
1.1695
1.16977
1.17003
1.17029
1.17053
1.17078
1.17101
1.17125
1.17148
1.1717
1.17192
1.17214
1.17235
1.17255
1.17274
1.17291
1.17307
1.17322
1.17334
1.17344
1.17352
1.17359
1.17366
1.17375
1.17389
1.17412
1.17449
1.17507
1.1759
1.177
1.17835
1.17985
1.14695
1.15595
1.162
1.16527
1.16685
1.16763
1.16808
1.1684
1.16867
1.16892
1.16917
1.1694
1.16964
1.16987
1.1701
1.17033
1.17056
1.17078
1.171
1.17121
1.17142
1.17162
1.1718
1.17197
1.17213
1.17226
1.17237
1.17245
1.17251
1.17257
1.17262
1.1727
1.17283
1.17308
1.1735
1.17416
1.17511
1.1764
1.17797
1.17972
1.14663
1.15516
1.16105
1.16435
1.16598
1.16679
1.16723
1.16753
1.16778
1.16801
1.16824
1.16846
1.16868
1.1689
1.16912
1.16934
1.16956
1.16978
1.16999
1.17021
1.17041
1.17061
1.17079
1.17096
1.17111
1.17124
1.17135
1.17142
1.17148
1.17153
1.17158
1.17166
1.1718
1.17207
1.17254
1.17327
1.17435
1.1758
1.17759
1.17959
1.14633
1.15441
1.16012
1.16341
1.16509
1.16592
1.16636
1.16665
1.16688
1.16709
1.16729
1.1675
1.1677
1.16791
1.16812
1.16832
1.16854
1.16875
1.16896
1.16916
1.16937
1.16956
1.16975
1.16992
1.17007
1.1702
1.17031
1.17039
1.17045
1.1705
1.17055
1.17064
1.1708
1.1711
1.17161
1.17242
1.17362
1.17523
1.17722
1.17947
1.14605
1.15371
1.15923
1.1625
1.16421
1.16506
1.1655
1.16578
1.16599
1.16618
1.16636
1.16654
1.16673
1.16692
1.16711
1.16731
1.16751
1.16771
1.16792
1.16812
1.16832
1.16851
1.16869
1.16887
1.16902
1.16916
1.16927
1.16936
1.16943
1.16949
1.16956
1.16966
1.16984
1.17016
1.17072
1.17161
1.1729
1.17466
1.17686
1.17935
1.1458
1.15305
1.15837
1.16161
1.16334
1.16421
1.16467
1.16494
1.16513
1.1653
1.16547
1.16563
1.1658
1.16597
1.16615
1.16633
1.16652
1.16671
1.1669
1.1671
1.16729
1.16748
1.16766
1.16783
1.16799
1.16813
1.16826
1.16836
1.16844
1.16851
1.1686
1.16872
1.16892
1.16928
1.16988
1.17082
1.17221
1.17412
1.17651
1.17923
1.14557
1.15243
1.15757
1.16076
1.1625
1.1634
1.16387
1.16414
1.16433
1.16448
1.16463
1.16477
1.16492
1.16508
1.16524
1.16541
1.16559
1.16576
1.16594
1.16613
1.16631
1.1665
1.16667
1.16684
1.167
1.16715
1.16728
1.16739
1.16749
1.16758
1.16768
1.16783
1.16805
1.16844
1.16907
1.17007
1.17155
1.17358
1.17616
1.17911
1.14536
1.15186
1.15681
1.15995
1.16171
1.16263
1.16312
1.16339
1.16358
1.16372
1.16385
1.16399
1.16412
1.16426
1.16441
1.16456
1.16472
1.16489
1.16506
1.16523
1.1654
1.16557
1.16575
1.16591
1.16607
1.16622
1.16635
1.16647
1.16658
1.16669
1.16681
1.16698
1.16723
1.16764
1.1683
1.16935
1.1709
1.17307
1.17582
1.17899
1.14516
1.15133
1.1561
1.15918
1.16096
1.16191
1.16242
1.1627
1.16289
1.16303
1.16316
1.16328
1.1634
1.16353
1.16366
1.1638
1.16394
1.16409
1.16425
1.16441
1.16457
1.16473
1.16489
1.16505
1.1652
1.16535
1.16549
1.16562
1.16574
1.16586
1.166
1.16618
1.16645
1.16689
1.16758
1.16867
1.17029
1.17256
1.17549
1.17887
1.14498
1.15085
1.15543
1.15847
1.16025
1.16123
1.16177
1.16207
1.16226
1.16241
1.16253
1.16264
1.16276
1.16287
1.16299
1.16312
1.16325
1.16339
1.16353
1.16367
1.16382
1.16397
1.16412
1.16427
1.16441
1.16456
1.16469
1.16483
1.16495
1.16509
1.16524
1.16544
1.16573
1.16618
1.1669
1.16801
1.16969
1.17207
1.17516
1.17876
1.14482
1.15039
1.15481
1.15779
1.15959
1.1606
1.16116
1.16149
1.1617
1.16185
1.16197
1.16208
1.16219
1.1623
1.16241
1.16252
1.16264
1.16276
1.16289
1.16302
1.16316
1.16329
1.16343
1.16357
1.16371
1.16384
1.16398
1.16411
1.16424
1.16438
1.16454
1.16476
1.16506
1.16552
1.16625
1.16739
1.16912
1.17159
1.17484
1.17864
1.14467
1.14997
1.15423
1.15716
1.15896
1.16001
1.1606
1.16095
1.16118
1.16134
1.16147
1.16158
1.16169
1.16179
1.16189
1.162
1.16211
1.16222
1.16233
1.16245
1.16257
1.1627
1.16282
1.16295
1.16308
1.16321
1.16333
1.16346
1.1636
1.16374
1.16391
1.16413
1.16444
1.16491
1.16565
1.1668
1.16857
1.17112
1.17452
1.17853
1.14453
1.14958
1.15369
1.15656
1.15837
1.15944
1.16007
1.16045
1.1607
1.16087
1.16101
1.16112
1.16123
1.16133
1.16143
1.16153
1.16163
1.16174
1.16184
1.16195
1.16206
1.16218
1.16229
1.16241
1.16253
1.16264
1.16277
1.16289
1.16302
1.16316
1.16333
1.16355
1.16387
1.16434
1.16507
1.16623
1.16802
1.17065
1.17419
1.17841
1.1444
1.14921
1.15317
1.15599
1.1578
1.1589
1.15957
1.15997
1.16024
1.16042
1.16057
1.16069
1.1608
1.16091
1.16101
1.1611
1.1612
1.1613
1.1614
1.1615
1.16161
1.16171
1.16182
1.16193
1.16204
1.16215
1.16226
1.16238
1.1625
1.16264
1.16281
1.16303
1.16334
1.1638
1.16452
1.16568
1.16749
1.17019
1.17387
1.1783
1.14427
1.14886
1.15267
1.15543
1.15725
1.15838
1.15907
1.1595
1.15978
1.15998
1.16014
1.16027
1.16038
1.16049
1.16059
1.16069
1.16079
1.16089
1.16099
1.16109
1.16119
1.16129
1.16139
1.16149
1.16159
1.1617
1.1618
1.16192
1.16204
1.16217
1.16233
1.16254
1.16284
1.16329
1.164
1.16514
1.16696
1.16972
1.17353
1.17818
1.14415
1.14853
1.1522
1.1549
1.1567
1.15785
1.15856
1.15902
1.15932
1.15953
1.1597
1.15983
1.15996
1.16007
1.16018
1.16028
1.16038
1.16048
1.16059
1.16069
1.16078
1.16088
1.16098
1.16108
1.16118
1.16128
1.16138
1.16149
1.1616
1.16173
1.16189
1.16209
1.16237
1.16279
1.16348
1.1646
1.16642
1.16924
1.17319
1.17805
1.14404
1.1482
1.15173
1.15436
1.15616
1.15732
1.15805
1.15852
1.15883
1.15905
1.15923
1.15937
1.1595
1.15962
1.15973
1.15984
1.15995
1.16006
1.16016
1.16027
1.16037
1.16047
1.16057
1.16067
1.16077
1.16087
1.16097
1.16108
1.16119
1.16131
1.16145
1.16164
1.1619
1.16231
1.16296
1.16406
1.16588
1.16874
1.17283
1.17792
1.14392
1.14789
1.15127
1.15383
1.1556
1.15677
1.15751
1.15799
1.15831
1.15854
1.15871
1.15886
1.15899
1.15912
1.15924
1.15936
1.15947
1.15959
1.15971
1.15982
1.15993
1.16004
1.16015
1.16025
1.16035
1.16045
1.16055
1.16066
1.16076
1.16088
1.16102
1.16119
1.16143
1.16181
1.16243
1.1635
1.16531
1.16822
1.17245
1.17778
1.14381
1.14757
1.15081
1.15329
1.15503
1.15619
1.15694
1.15742
1.15774
1.15797
1.15814
1.15829
1.15843
1.15856
1.15868
1.15881
1.15894
1.15907
1.15919
1.15932
1.15944
1.15956
1.15967
1.15979
1.15989
1.16
1.16011
1.16021
1.16032
1.16043
1.16056
1.16072
1.16095
1.1613
1.16189
1.16292
1.16472
1.16767
1.17205
1.17764
1.14371
1.14726
1.15035
1.15275
1.15445
1.15559
1.15633
1.15681
1.15712
1.15734
1.15751
1.15766
1.15779
1.15793
1.15806
1.1582
1.15833
1.15847
1.15861
1.15875
1.15888
1.15901
1.15914
1.15926
1.15938
1.1595
1.15961
1.15972
1.15983
1.15994
1.16007
1.16022
1.16043
1.16075
1.16131
1.16231
1.16409
1.16709
1.17163
1.17748
1.1436
1.14695
1.14988
1.15218
1.15383
1.15495
1.15568
1.15615
1.15645
1.15666
1.15682
1.15696
1.15709
1.15722
1.15736
1.1575
1.15765
1.1578
1.15795
1.1581
1.15825
1.15839
1.15853
1.15867
1.1588
1.15893
1.15905
1.15917
1.15929
1.1594
1.15953
1.15967
1.15987
1.16017
1.1607
1.16166
1.16343
1.16648
1.17117
1.17731
1.14349
1.14664
1.14941
1.1516
1.15319
1.15428
1.15499
1.15544
1.15573
1.15592
1.15607
1.1562
1.15632
1.15645
1.15659
1.15673
1.15689
1.15704
1.15721
1.15737
1.15753
1.15769
1.15784
1.15799
1.15814
1.15828
1.15842
1.15855
1.15867
1.1588
1.15892
1.15907
1.15926
1.15954
1.16004
1.16098
1.16273
1.16582
1.17067
1.17712
1.14338
1.14632
1.14892
1.151
1.15252
1.15357
1.15425
1.15468
1.15495
1.15512
1.15526
1.15537
1.15549
1.15561
1.15574
1.15589
1.15605
1.15621
1.15638
1.15655
1.15673
1.1569
1.15707
1.15723
1.1574
1.15755
1.1577
1.15784
1.15798
1.15812
1.15826
1.1584
1.15859
1.15886
1.15934
1.16025
1.16198
1.16511
1.17013
1.17692
1.14327
1.146
1.14843
1.15038
1.15183
1.15282
1.15347
1.15387
1.15412
1.15428
1.15439
1.15449
1.15459
1.15471
1.15484
1.15498
1.15514
1.15531
1.15548
1.15567
1.15585
1.15603
1.15622
1.1564
1.15657
1.15674
1.15691
1.15707
1.15722
1.15737
1.15752
1.15768
1.15786
1.15813
1.15859
1.15947
1.16119
1.16436
1.16956
1.1767
1.14316
1.14567
1.14792
1.14974
1.1511
1.15204
1.15265
1.15303
1.15325
1.15339
1.15349
1.15357
1.15366
1.15376
1.15388
1.15402
1.15418
1.15435
1.15453
1.15471
1.15491
1.1551
1.15529
1.15549
1.15567
1.15586
1.15604
1.15622
1.15639
1.15656
1.15672
1.15689
1.15709
1.15736
1.15781
1.15866
1.16036
1.16356
1.16894
1.17646
1.14305
1.14534
1.1474
1.14908
1.15034
1.15122
1.15179
1.15213
1.15233
1.15246
1.15254
1.15261
1.15268
1.15278
1.15289
1.15302
1.15318
1.15335
1.15353
1.15372
1.15392
1.15412
1.15432
1.15452
1.15472
1.15492
1.15512
1.15531
1.1555
1.15569
1.15587
1.15606
1.15627
1.15655
1.15699
1.15782
1.15949
1.16272
1.16827
1.17619
1.14293
1.14501
1.14687
1.1484
1.14956
1.15036
1.15089
1.1512
1.15138
1.15149
1.15156
1.15162
1.15169
1.15177
1.15188
1.15201
1.15216
1.15233
1.15251
1.1527
1.1529
1.15311
1.15332
1.15353
1.15374
1.15395
1.15416
1.15437
1.15457
1.15478
1.15499
1.1552
1.15543
1.15571
1.15615
1.15696
1.1586
1.16184
1.16756
1.17591
1.14282
1.14466
1.14633
1.1477
1.14874
1.14947
1.14995
1.15024
1.1504
1.1505
1.15057
1.15062
1.15069
1.15077
1.15087
1.151
1.15115
1.15132
1.1515
1.15169
1.15189
1.1521
1.15232
1.15253
1.15275
1.15297
1.15319
1.15342
1.15364
1.15386
1.15409
1.15432
1.15457
1.15487
1.15531
1.1561
1.15769
1.16092
1.16681
1.1756
1.1427
1.14431
1.14577
1.14699
1.14791
1.14855
1.14898
1.14924
1.1494
1.14949
1.14956
1.14963
1.1497
1.14978
1.14989
1.15002
1.15017
1.15034
1.15053
1.15072
1.15092
1.15114
1.15135
1.15157
1.1518
1.15203
1.15226
1.15249
1.15272
1.15296
1.15321
1.15346
1.15373
1.15405
1.15449
1.15525
1.15679
1.16
1.16602
1.17527
1.14258
1.14396
1.14521
1.14625
1.14705
1.14761
1.14799
1.14824
1.14839
1.1485
1.14858
1.14866
1.14875
1.14885
1.14897
1.14911
1.14927
1.14944
1.14963
1.14982
1.15003
1.15024
1.15046
1.15068
1.15091
1.15115
1.15138
1.15162
1.15187
1.15212
1.15238
1.15265
1.15294
1.15328
1.15372
1.15445
1.15593
1.15907
1.1652
1.17491
1.14247
1.14361
1.14464
1.14551
1.14618
1.14667
1.14701
1.14725
1.14741
1.14754
1.14765
1.14776
1.14787
1.148
1.14814
1.1483
1.14847
1.14865
1.14884
1.14904
1.14925
1.14946
1.14968
1.14991
1.15014
1.15038
1.15062
1.15087
1.15112
1.15138
1.15166
1.15194
1.15225
1.15259
1.15303
1.15374
1.15513
1.15817
1.16437
1.17454
1.14235
1.14327
1.1441
1.1448
1.14536
1.14578
1.1461
1.14634
1.14653
1.14669
1.14684
1.14698
1.14713
1.14729
1.14745
1.14763
1.14781
1.148
1.1482
1.14841
1.14862
1.14884
1.14906
1.14929
1.14952
1.14976
1.15001
1.15026
1.15052
1.15079
1.15107
1.15137
1.15168
1.15204
1.15247
1.15314
1.15445
1.15736
1.16357
1.17416
1.14225
1.14297
1.14362
1.14418
1.14464
1.14502
1.14533
1.14559
1.14581
1.14601
1.1462
1.14639
1.14657
1.14676
1.14695
1.14714
1.14734
1.14754
1.14774
1.14796
1.14817
1.14839
1.14862
1.14885
1.14908
1.14933
1.14958
1.14983
1.1501
1.15038
1.15066
1.15097
1.15129
1.15165
1.15209
1.15273
1.15394
1.1567
1.16285
1.1738
1.14218
1.14275
1.14327
1.14374
1.14414
1.1445
1.14481
1.14509
1.14534
1.14558
1.1458
1.14602
1.14623
1.14644
1.14664
1.14685
1.14706
1.14727
1.14748
1.1477
1.14792
1.14814
1.14837
1.1486
1.14884
1.14909
1.14934
1.1496
1.14987
1.15016
1.15045
1.15076
1.15109
1.15146
1.1519
1.15254
1.15372
1.15636
1.16239
1.17355
1.14215
1.14265
1.14311
1.14354
1.14392
1.14427
1.14459
1.14488
1.14515
1.1454
1.14564
1.14588
1.1461
1.14632
1.14653
1.14675
1.14696
1.14717
1.14739
1.14761
1.14783
1.14805
1.14828
1.14852
1.14876
1.14901
1.14927
1.14953
1.14981
1.15009
1.15039
1.1507
1.15104
1.15142
1.15189
1.15256
1.15379
1.15643
1.16236
1.1735
1.14911
1.16051
1.16632
1.16873
1.16982
1.17043
1.17088
1.17124
1.17158
1.17189
1.17219
1.17248
1.17275
1.17302
1.17328
1.17353
1.17377
1.17401
1.17424
1.17447
1.1747
1.17492
1.17514
1.17536
1.17558
1.1758
1.17602
1.17624
1.17648
1.17671
1.17696
1.17723
1.17751
1.1778
1.17813
1.17849
1.17889
1.17933
1.17981
1.18034
1.14915
1.16072
1.16661
1.1689
1.16989
1.17045
1.17087
1.17122
1.17155
1.17186
1.17215
1.17243
1.1727
1.17296
1.17322
1.17346
1.17371
1.17394
1.17417
1.1744
1.17462
1.17484
1.17506
1.17527
1.17549
1.1757
1.17591
1.17613
1.17635
1.17657
1.1768
1.17704
1.17729
1.17757
1.17788
1.17824
1.17866
1.17914
1.17969
1.1803
1.14895
1.16033
1.16632
1.16872
1.16972
1.17027
1.17068
1.17103
1.17134
1.17164
1.17193
1.1722
1.17247
1.17273
1.17298
1.17322
1.17346
1.17369
1.17392
1.17414
1.17436
1.17458
1.17479
1.175
1.1752
1.17539
1.17559
1.17578
1.17596
1.17615
1.17633
1.17652
1.17673
1.17697
1.17727
1.17764
1.17812
1.17872
1.17943
1.18021
1.14856
1.15955
1.16563
1.16821
1.1693
1.16988
1.17028
1.17062
1.17093
1.17122
1.1715
1.17177
1.17203
1.17228
1.17253
1.17277
1.173
1.17323
1.17346
1.17368
1.17389
1.1741
1.17431
1.1745
1.17469
1.17486
1.17503
1.17518
1.17533
1.17546
1.17559
1.17573
1.17589
1.1761
1.17639
1.1768
1.17739
1.17815
1.17908
1.1801
1.14814
1.15867
1.16477
1.16751
1.16869
1.16929
1.1697
1.17003
1.17032
1.17061
1.17088
1.17114
1.17139
1.17164
1.17188
1.17212
1.17235
1.17258
1.1728
1.17302
1.17323
1.17343
1.17363
1.17381
1.17398
1.17414
1.17428
1.1744
1.1745
1.17459
1.17467
1.17476
1.17488
1.17507
1.17539
1.17586
1.17657
1.17752
1.17868
1.17997
1.14771
1.15773
1.1638
1.16669
1.16795
1.16858
1.16898
1.1693
1.16958
1.16985
1.1701
1.17035
1.1706
1.17084
1.17108
1.17131
1.17154
1.17176
1.17199
1.1722
1.17241
1.17261
1.1728
1.17297
1.17313
1.17327
1.17339
1.17348
1.17355
1.1736
1.17365
1.17372
1.17382
1.17401
1.17435
1.17491
1.17574
1.17688
1.17828
1.17984
1.14731
1.1568
1.1628
1.16578
1.16713
1.16778
1.16817
1.16847
1.16874
1.16898
1.16923
1.16946
1.1697
1.16993
1.17016
1.17039
1.17061
1.17083
1.17105
1.17126
1.17147
1.17167
1.17186
1.17203
1.17218
1.17231
1.17241
1.17248
1.17254
1.17257
1.1726
1.17266
1.17275
1.17296
1.17334
1.17398
1.17493
1.17626
1.17789
1.17971
1.14693
1.15593
1.1618
1.16484
1.16626
1.16694
1.16732
1.1676
1.16784
1.16807
1.16829
1.16851
1.16873
1.16895
1.16917
1.16939
1.16961
1.16983
1.17004
1.17025
1.17046
1.17065
1.17084
1.17101
1.17116
1.17128
1.17138
1.17145
1.1715
1.17153
1.17156
1.17161
1.17172
1.17194
1.17237
1.17308
1.17416
1.17565
1.1775
1.17958
1.14659
1.15509
1.16082
1.16389
1.16537
1.16607
1.16646
1.16672
1.16693
1.16714
1.16734
1.16754
1.16774
1.16795
1.16816
1.16836
1.16857
1.16879
1.16899
1.1692
1.16941
1.1696
1.16979
1.16996
1.17011
1.17024
1.17034
1.17041
1.17046
1.1705
1.17053
1.1706
1.17072
1.17097
1.17144
1.17222
1.17341
1.17505
1.17712
1.17945
1.14628
1.15431
1.15987
1.16296
1.16448
1.16521
1.1656
1.16584
1.16604
1.16622
1.1664
1.16658
1.16676
1.16695
1.16715
1.16734
1.16754
1.16775
1.16795
1.16815
1.16835
1.16854
1.16873
1.1689
1.16906
1.16919
1.1693
1.16938
1.16944
1.16949
1.16954
1.16962
1.16976
1.17004
1.17056
1.1714
1.17268
1.17448
1.17675
1.17932
1.14599
1.15359
1.15897
1.16205
1.16361
1.16437
1.16476
1.165
1.16518
1.16534
1.1655
1.16566
1.16583
1.166
1.16618
1.16636
1.16655
1.16674
1.16693
1.16712
1.16732
1.16751
1.16769
1.16786
1.16802
1.16816
1.16828
1.16838
1.16845
1.16851
1.16858
1.16868
1.16885
1.16916
1.16971
1.17062
1.17199
1.17391
1.17639
1.1792
1.14573
1.15292
1.15812
1.16118
1.16277
1.16356
1.16396
1.1642
1.16437
1.16451
1.16465
1.1648
1.16495
1.1651
1.16526
1.16543
1.16561
1.16578
1.16596
1.16615
1.16633
1.16652
1.1667
1.16687
1.16703
1.16717
1.1673
1.16741
1.1675
1.16758
1.16767
1.16779
1.16798
1.16832
1.16891
1.16986
1.17131
1.17337
1.17603
1.17908
1.1455
1.1523
1.15732
1.16035
1.16197
1.16279
1.16321
1.16345
1.16361
1.16375
1.16388
1.16401
1.16414
1.16428
1.16443
1.16458
1.16474
1.1649
1.16507
1.16524
1.16542
1.16559
1.16576
1.16593
1.16609
1.16624
1.16637
1.16649
1.16659
1.16669
1.1668
1.16694
1.16716
1.16753
1.16815
1.16914
1.17066
1.17284
1.17568
1.17896
1.14529
1.15173
1.15657
1.15957
1.16121
1.16206
1.16251
1.16276
1.16292
1.16306
1.16318
1.16329
1.16341
1.16354
1.16367
1.16381
1.16395
1.1641
1.16426
1.16442
1.16458
1.16474
1.1649
1.16506
1.16522
1.16536
1.1655
1.16563
1.16574
1.16586
1.16598
1.16615
1.16639
1.16678
1.16743
1.16846
1.17004
1.17233
1.17534
1.17884
1.14509
1.1512
1.15587
1.15884
1.1605
1.16139
1.16186
1.16213
1.1623
1.16243
1.16255
1.16266
1.16277
1.16288
1.163
1.16313
1.16326
1.16339
1.16353
1.16368
1.16382
1.16397
1.16413
1.16428
1.16442
1.16457
1.1647
1.16483
1.16496
1.16508
1.16522
1.1654
1.16567
1.16608
1.16674
1.16781
1.16945
1.17183
1.175
1.17872
1.14492
1.15071
1.15522
1.15815
1.15983
1.16075
1.16126
1.16155
1.16173
1.16187
1.16199
1.16209
1.1622
1.16231
1.16242
1.16253
1.16265
1.16277
1.16289
1.16302
1.16316
1.16329
1.16343
1.16357
1.16371
1.16385
1.16398
1.16411
1.16424
1.16437
1.16453
1.16472
1.165
1.16542
1.1661
1.16718
1.16887
1.17134
1.17467
1.1786
1.14476
1.15027
1.15461
1.15749
1.1592
1.16016
1.1607
1.16101
1.16121
1.16136
1.16148
1.16159
1.16169
1.16179
1.1619
1.162
1.16211
1.16222
1.16234
1.16245
1.16257
1.1627
1.16282
1.16295
1.16308
1.16321
1.16333
1.16346
1.16359
1.16373
1.16389
1.16409
1.16438
1.16481
1.1655
1.16659
1.16831
1.17086
1.17433
1.17848
1.14461
1.14985
1.15404
1.15688
1.1586
1.1596
1.16017
1.16051
1.16073
1.16089
1.16102
1.16113
1.16124
1.16134
1.16144
1.16154
1.16164
1.16174
1.16185
1.16195
1.16206
1.16218
1.16229
1.16241
1.16252
1.16264
1.16276
1.16289
1.16301
1.16315
1.16331
1.16352
1.16381
1.16424
1.16492
1.16602
1.16775
1.17038
1.17399
1.17836
1.14447
1.14946
1.1535
1.15629
1.15803
1.15905
1.15966
1.16003
1.16027
1.16045
1.16058
1.1607
1.16081
1.16091
1.16101
1.16111
1.16121
1.1613
1.1614
1.1615
1.16161
1.16171
1.16182
1.16192
1.16203
1.16214
1.16226
1.16237
1.1625
1.16263
1.16279
1.16299
1.16328
1.1637
1.16438
1.16546
1.16721
1.1699
1.17366
1.17824
1.14433
1.14909
1.15299
1.15573
1.15747
1.15853
1.15916
1.15956
1.15982
1.16001
1.16016
1.16028
1.16039
1.1605
1.1606
1.1607
1.1608
1.16089
1.16099
1.16109
1.16119
1.16129
1.16139
1.16149
1.16159
1.16169
1.1618
1.16191
1.16203
1.16216
1.16231
1.16251
1.16278
1.16319
1.16385
1.16492
1.16667
1.16941
1.17331
1.17811
1.14421
1.14874
1.15249
1.15518
1.15692
1.158
1.15866
1.15908
1.15936
1.15956
1.15971
1.15984
1.15996
1.16007
1.16018
1.16028
1.16039
1.16049
1.16059
1.16069
1.16078
1.16088
1.16098
1.16108
1.16118
1.16128
1.16138
1.16148
1.16159
1.16172
1.16186
1.16205
1.16231
1.1627
1.16333
1.16438
1.16613
1.16891
1.17295
1.17798
1.14409
1.1484
1.15201
1.15464
1.15637
1.15747
1.15815
1.15858
1.15887
1.15908
1.15924
1.15938
1.1595
1.15962
1.15973
1.15984
1.15995
1.16006
1.16017
1.16027
1.16037
1.16047
1.16057
1.16067
1.16077
1.16087
1.16097
1.16107
1.16118
1.16129
1.16143
1.16161
1.16185
1.16221
1.16281
1.16383
1.16557
1.16839
1.17257
1.17784
1.14397
1.14807
1.15153
1.15409
1.15581
1.15691
1.15761
1.15805
1.15835
1.15856
1.15872
1.15887
1.159
1.15912
1.15924
1.15936
1.15948
1.15959
1.15971
1.15982
1.15993
1.16004
1.16014
1.16025
1.16035
1.16045
1.16055
1.16065
1.16075
1.16087
1.161
1.16116
1.16138
1.16172
1.16229
1.16327
1.16499
1.16785
1.17217
1.1777
1.14386
1.14774
1.15106
1.15355
1.15524
1.15634
1.15704
1.15748
1.15778
1.15799
1.15815
1.1583
1.15843
1.15856
1.15868
1.15881
1.15894
1.15907
1.15919
1.15932
1.15944
1.15956
1.15967
1.15978
1.15989
1.16
1.1601
1.1602
1.16031
1.16042
1.16054
1.16069
1.16089
1.16121
1.16174
1.16269
1.16438
1.16728
1.17174
1.17754
1.14374
1.14742
1.15059
1.15299
1.15465
1.15574
1.15643
1.15687
1.15716
1.15736
1.15752
1.15766
1.15779
1.15792
1.15806
1.15819
1.15833
1.15847
1.15861
1.15874
1.15888
1.15901
1.15914
1.15926
1.15938
1.15949
1.1596
1.15971
1.15982
1.15993
1.16005
1.16019
1.16038
1.16067
1.16116
1.16207
1.16374
1.16668
1.17129
1.17737
1.14363
1.1471
1.15011
1.15242
1.15404
1.1551
1.15578
1.15621
1.15649
1.15668
1.15683
1.15696
1.15709
1.15722
1.15735
1.1575
1.15764
1.15779
1.15794
1.15809
1.15824
1.15839
1.15853
1.15866
1.15879
1.15892
1.15904
1.15916
1.15927
1.15939
1.1595
1.15964
1.15982
1.16008
1.16055
1.16142
1.16306
1.16603
1.17079
1.17718
1.14352
1.14677
1.14962
1.15183
1.15339
1.15443
1.15509
1.15551
1.15576
1.15594
1.15607
1.15619
1.15631
1.15644
1.15657
1.15672
1.15687
1.15703
1.15719
1.15736
1.15752
1.15768
1.15783
1.15798
1.15813
1.15827
1.1584
1.15853
1.15866
1.15878
1.1589
1.15903
1.1592
1.15945
1.15989
1.16072
1.16234
1.16533
1.17026
1.17698
1.14341
1.14645
1.14913
1.15123
1.15272
1.15372
1.15436
1.15475
1.15499
1.15514
1.15526
1.15537
1.15547
1.15559
1.15572
1.15587
1.15603
1.15619
1.15637
1.15654
1.15671
1.15689
1.15706
1.15722
1.15738
1.15754
1.15768
1.15783
1.15796
1.1581
1.15823
1.15837
1.15853
1.15878
1.15919
1.15999
1.16158
1.16459
1.16968
1.17676
1.14329
1.14612
1.14862
1.1506
1.15202
1.15298
1.15358
1.15395
1.15416
1.1543
1.1544
1.15448
1.15458
1.15469
1.15481
1.15496
1.15512
1.15529
1.15546
1.15565
1.15583
1.15601
1.1562
1.15638
1.15655
1.15672
1.15689
1.15704
1.1572
1.15734
1.15749
1.15764
1.15781
1.15805
1.15844
1.15921
1.16077
1.1638
1.16905
1.17652
1.14318
1.14578
1.1481
1.14995
1.15129
1.1522
1.15276
1.1531
1.15329
1.15341
1.15349
1.15356
1.15364
1.15373
1.15385
1.15399
1.15415
1.15432
1.1545
1.15469
1.15488
1.15508
1.15527
1.15546
1.15565
1.15583
1.15601
1.15619
1.15636
1.15652
1.15669
1.15685
1.15703
1.15727
1.15766
1.1584
1.15992
1.16296
1.16838
1.17625
1.14307
1.14544
1.14757
1.14928
1.15053
1.15138
1.15191
1.15221
1.15238
1.15248
1.15254
1.1526
1.15266
1.15275
1.15286
1.15299
1.15314
1.15331
1.1535
1.15369
1.15389
1.15409
1.15429
1.15449
1.15469
1.15489
1.15509
1.15528
1.15547
1.15565
1.15583
1.15601
1.15621
1.15646
1.15684
1.15755
1.15904
1.16207
1.16765
1.17595
1.14295
1.14509
1.14702
1.14859
1.14974
1.15052
1.15101
1.15129
1.15143
1.15151
1.15156
1.15161
1.15167
1.15174
1.15184
1.15197
1.15212
1.15229
1.15247
1.15266
1.15287
1.15307
1.15328
1.15349
1.1537
1.15391
1.15412
1.15433
1.15453
1.15474
1.15494
1.15515
1.15536
1.15563
1.156
1.15669
1.15813
1.16114
1.16686
1.17563
1.14283
1.14474
1.14646
1.14788
1.14892
1.14962
1.15007
1.15032
1.15045
1.15052
1.15057
1.15061
1.15066
1.15073
1.15083
1.15096
1.15111
1.15127
1.15145
1.15165
1.15185
1.15206
1.15227
1.15249
1.15271
1.15293
1.15315
1.15337
1.15359
1.15381
1.15403
1.15426
1.1545
1.15478
1.15516
1.15583
1.1572
1.16018
1.16603
1.17527
1.14271
1.14438
1.14589
1.14715
1.14807
1.1487
1.14909
1.14932
1.14944
1.14951
1.14956
1.14961
1.14966
1.14974
1.14985
1.14998
1.15012
1.15029
1.15047
1.15067
1.15087
1.15108
1.1513
1.15152
1.15174
1.15197
1.1522
1.15243
1.15267
1.1529
1.15315
1.1534
1.15366
1.15396
1.15435
1.15499
1.15629
1.1592
1.16515
1.17488
1.14259
1.14402
1.14531
1.14639
1.14719
1.14774
1.14809
1.1483
1.14842
1.1485
1.14857
1.14863
1.14871
1.1488
1.14892
1.14906
1.14921
1.14938
1.14957
1.14976
1.14997
1.15018
1.1504
1.15062
1.15085
1.15108
1.15132
1.15156
1.1518
1.15205
1.15231
1.15258
1.15286
1.15318
1.15357
1.15419
1.15542
1.15822
1.16423
1.17447
1.14247
1.14365
1.14473
1.14562
1.14629
1.14676
1.14708
1.14729
1.14742
1.14753
1.14762
1.14772
1.14782
1.14795
1.14808
1.14824
1.1484
1.14858
1.14877
1.14897
1.14918
1.1494
1.14962
1.14984
1.15007
1.15031
1.15055
1.15079
1.15105
1.15131
1.15158
1.15186
1.15216
1.15248
1.15288
1.15348
1.15463
1.15729
1.16331
1.17403
1.14236
1.14329
1.14415
1.14486
1.14542
1.14582
1.14612
1.14634
1.14651
1.14665
1.14679
1.14693
1.14707
1.14722
1.14739
1.14756
1.14774
1.14793
1.14813
1.14834
1.14855
1.14876
1.14899
1.14921
1.14945
1.14968
1.14993
1.15018
1.15044
1.15071
1.15099
1.15128
1.15159
1.15192
1.15232
1.15289
1.15395
1.15646
1.16244
1.1736
1.14225
1.14297
1.14363
1.14419
1.14465
1.14501
1.14531
1.14555
1.14576
1.14595
1.14614
1.14632
1.1465
1.14669
1.14688
1.14707
1.14727
1.14747
1.14768
1.14789
1.1481
1.14832
1.14855
1.14878
1.14901
1.14925
1.1495
1.14976
1.15002
1.15029
1.15058
1.15088
1.15119
1.15154
1.15194
1.15249
1.15347
1.1558
1.16167
1.1732
1.14218
1.14274
1.14326
1.14372
1.14411
1.14446
1.14476
1.14503
1.14528
1.14551
1.14574
1.14595
1.14617
1.14638
1.14659
1.14679
1.147
1.14721
1.14743
1.14764
1.14786
1.14808
1.14831
1.14854
1.14878
1.14903
1.14928
1.14954
1.14981
1.15009
1.15038
1.15068
1.15101
1.15136
1.15178
1.15234
1.1533
1.15553
1.16129
1.173
1.14214
1.14264
1.14309
1.14351
1.14389
1.14423
1.14454
1.14483
1.1451
1.14536
1.1456
1.14583
1.14606
1.14628
1.14649
1.14671
1.14692
1.14714
1.14735
1.14757
1.14779
1.14802
1.14825
1.14848
1.14872
1.14897
1.14923
1.14949
1.14976
1.15005
1.15035
1.15066
1.15099
1.15136
1.1518
1.15241
1.15348
1.15582
1.1615
1.17304
1.1493
1.16089
1.1666
1.16888
1.16989
1.17048
1.17091
1.17127
1.1716
1.17192
1.17221
1.1725
1.17277
1.17304
1.1733
1.17355
1.17379
1.17403
1.17426
1.17449
1.17472
1.17494
1.17516
1.17538
1.1756
1.17582
1.17604
1.17627
1.1765
1.17674
1.17699
1.17725
1.17753
1.17783
1.17815
1.17851
1.1789
1.17933
1.17982
1.18034
1.1494
1.16122
1.16699
1.16909
1.16998
1.17051
1.17092
1.17127
1.17159
1.17189
1.17218
1.17246
1.17273
1.173
1.17325
1.1735
1.17374
1.17397
1.1742
1.17443
1.17465
1.17487
1.17509
1.1753
1.17552
1.17573
1.17595
1.17616
1.17638
1.1766
1.17683
1.17707
1.17732
1.17759
1.1779
1.17825
1.17866
1.17914
1.17969
1.1803
1.14921
1.16086
1.16674
1.16894
1.16983
1.17035
1.17074
1.17108
1.17139
1.17169
1.17197
1.17225
1.17251
1.17277
1.17302
1.17326
1.1735
1.17373
1.17396
1.17418
1.1744
1.17461
1.17482
1.17503
1.17523
1.17543
1.17562
1.17581
1.176
1.17618
1.17636
1.17654
1.17674
1.17697
1.17726
1.17762
1.1781
1.1787
1.17942
1.18021
1.14882
1.16008
1.16606
1.16845
1.16942
1.16995
1.17034
1.17067
1.17098
1.17127
1.17154
1.17181
1.17207
1.17232
1.17257
1.17281
1.17304
1.17327
1.1735
1.17372
1.17393
1.17414
1.17434
1.17454
1.17472
1.1749
1.17506
1.17521
1.17535
1.17548
1.1756
1.17573
1.17587
1.17607
1.17635
1.17675
1.17734
1.17811
1.17905
1.1801
1.14838
1.15918
1.1652
1.16775
1.16882
1.16937
1.16975
1.17007
1.17037
1.17065
1.17092
1.17118
1.17143
1.17168
1.17192
1.17216
1.17239
1.17262
1.17284
1.17306
1.17327
1.17347
1.17366
1.17385
1.17402
1.17417
1.17431
1.17442
1.17452
1.1746
1.17467
1.17474
1.17485
1.17502
1.17532
1.17578
1.17649
1.17746
1.17865
1.17996
1.14793
1.15821
1.16422
1.16693
1.16808
1.16865
1.16903
1.16934
1.16962
1.16988
1.17014
1.17039
1.17064
1.17088
1.17111
1.17134
1.17157
1.1718
1.17202
1.17223
1.17244
1.17264
1.17283
1.17301
1.17316
1.1733
1.17341
1.1735
1.17356
1.17361
1.17364
1.17369
1.17377
1.17394
1.17427
1.17481
1.17565
1.17681
1.17824
1.17983
1.14749
1.15724
1.16319
1.16602
1.16726
1.16786
1.16822
1.16851
1.16877
1.16902
1.16926
1.1695
1.16973
1.16996
1.17019
1.17042
1.17064
1.17086
1.17108
1.17129
1.1715
1.1717
1.17188
1.17205
1.1722
1.17233
1.17243
1.1725
1.17254
1.17257
1.17259
1.17262
1.1727
1.17288
1.17325
1.17387
1.17483
1.17618
1.17784
1.1797
1.14709
1.15632
1.16217
1.16508
1.16639
1.16701
1.16737
1.16764
1.16788
1.1681
1.16832
1.16854
1.16876
1.16898
1.1692
1.16942
1.16963
1.16985
1.17007
1.17028
1.17048
1.17068
1.17087
1.17103
1.17118
1.17131
1.1714
1.17147
1.17151
1.17153
1.17154
1.17158
1.17166
1.17187
1.17228
1.17297
1.17404
1.17556
1.17745
1.17957
1.14673
1.15544
1.16116
1.16413
1.1655
1.16615
1.1665
1.16675
1.16696
1.16716
1.16736
1.16756
1.16777
1.16797
1.16818
1.16839
1.1686
1.16881
1.16902
1.16923
1.16943
1.16963
1.16981
1.16998
1.17013
1.17026
1.17036
1.17043
1.17047
1.17049
1.17052
1.17057
1.17066
1.1709
1.17135
1.17211
1.17329
1.17496
1.17706
1.17944
1.1464
1.15462
1.16019
1.16318
1.16461
1.16529
1.16564
1.16587
1.16606
1.16624
1.16642
1.1666
1.16679
1.16697
1.16717
1.16736
1.16756
1.16776
1.16797
1.16817
1.16837
1.16856
1.16875
1.16892
1.16908
1.16921
1.16932
1.1694
1.16945
1.16949
1.16952
1.16959
1.16971
1.16997
1.17046
1.17129
1.17256
1.17437
1.17669
1.17931
1.14609
1.15387
1.15927
1.16227
1.16374
1.16444
1.16481
1.16503
1.1652
1.16536
1.16552
1.16568
1.16584
1.16602
1.16619
1.16638
1.16656
1.16675
1.16695
1.16714
1.16733
1.16752
1.16771
1.16788
1.16804
1.16818
1.1683
1.16839
1.16846
1.16851
1.16857
1.16866
1.1688
1.16909
1.16962
1.1705
1.17186
1.17381
1.17632
1.17919
1.14582
1.15317
1.15839
1.16139
1.1629
1.16363
1.16401
1.16423
1.16439
1.16453
1.16467
1.16481
1.16496
1.16512
1.16528
1.16545
1.16562
1.1658
1.16598
1.16616
1.16635
1.16653
1.16671
1.16688
1.16704
1.16719
1.16732
1.16742
1.16751
1.16758
1.16766
1.16777
1.16794
1.16826
1.16882
1.16975
1.17118
1.17325
1.17596
1.17906
1.14558
1.15252
1.15757
1.16056
1.1621
1.16287
1.16326
1.16348
1.16364
1.16377
1.16389
1.16402
1.16415
1.16429
1.16444
1.16459
1.16475
1.16491
1.16508
1.16525
1.16543
1.1656
1.16577
1.16594
1.1661
1.16625
1.16638
1.1665
1.1666
1.16669
1.16679
1.16692
1.16712
1.16747
1.16806
1.16903
1.17054
1.17272