/*--------------------------------*- C++ -*----------------------------------*\
  =========                 |
  \\      /  F ield         | OpenFOAM: The Open Source CFD Toolbox
   \\    /   O peration     | Website:  https://openfoam.org
    \\  /    A nd           | Version:  12
     \\/     M anipulation  |
\*---------------------------------------------------------------------------*/
FoamFile
{
    format      ascii;
    class       volScalarField;
    location    "500";
    object      T;
}
// * * * * * * * * * * * * * * * * * * * * * * * * * * * * * * * * * * * * * //

dimensions      [0 0 0 1 0 0 0];

internalField   nonuniform List<scalar> 
8000
(
303.203
300.331
298.776
298.081
297.762
297.587
297.468
297.372
297.286
297.206
297.13
297.057
296.987
296.92
296.854
296.79
296.729
296.668
296.609
296.551
296.494
296.438
296.382
296.327
296.272
296.217
296.162
296.106
296.048
295.988
295.926
295.861
295.791
295.715
295.632
295.54
295.439
295.326
295.202
295.069
303.217
300.34
298.759
298.064
297.758
297.593
297.479
297.385
297.301
297.222
297.147
297.075
297.006
296.939
296.875
296.812
296.75
296.691
296.632
296.575
296.518
296.463
296.408
296.354
296.3
296.247
296.194
296.14
296.086
296.03
295.972
295.912
295.846
295.775
295.694
295.601
295.494
295.371
295.231
295.078
303.281
300.461
298.851
298.126
297.808
297.642
297.53
297.439
297.357
297.279
297.206
297.136
297.068
297.002
296.938
296.876
296.815
296.756
296.698
296.642
296.586
296.532
296.479
296.427
296.376
296.326
296.278
296.23
296.183
296.136
296.088
296.037
295.981
295.916
295.837
295.739
295.616
295.467
295.292
295.099
303.373
300.65
299.027
298.26
297.919
297.745
297.633
297.543
297.462
297.387
297.316
297.247
297.18
297.115
297.052
296.991
296.931
296.873
296.815
296.76
296.705
296.652
296.601
296.552
296.505
296.46
296.418
296.378
296.341
296.305
296.268
296.229
296.183
296.123
296.043
295.934
295.787
295.599
295.375
295.126
303.469
300.86
299.243
298.442
298.076
297.893
297.78
297.692
297.614
297.541
297.472
297.405
297.34
297.277
297.215
297.154
297.095
297.037
296.981
296.925
296.872
296.82
296.771
296.724
296.681
296.641
296.606
296.574
296.546
296.52
296.494
296.465
296.426
296.37
296.284
296.158
295.982
295.749
295.469
295.157
303.566
301.078
299.48
298.653
298.266
298.075
297.961
297.875
297.801
297.732
297.666
297.602
297.539
297.478
297.417
297.358
297.299
297.242
297.186
297.131
297.078
297.027
296.979
296.935
296.894
296.859
296.828
296.803
296.782
296.765
296.747
296.724
296.689
296.631
296.536
296.391
296.182
295.903
295.566
295.19
303.657
301.292
299.725
298.882
298.477
298.278
298.164
298.083
298.014
297.949
297.887
297.826
297.766
297.707
297.648
297.59
297.533
297.477
297.421
297.367
297.314
297.264
297.217
297.173
297.135
297.101
297.074
297.053
297.036
297.023
297.01
296.99
296.956
296.893
296.787
296.621
296.379
296.056
295.662
295.222
303.742
301.498
299.969
299.12
298.7
298.494
298.381
298.303
298.239
298.18
298.123
298.067
298.01
297.954
297.898
297.842
297.786
297.731
297.676
297.622
297.57
297.52
297.473
297.43
297.392
297.359
297.332
297.313
297.298
297.287
297.274
297.254
297.218
297.149
297.031
296.844
296.571
296.205
295.756
295.253
303.821
301.694
300.209
299.359
298.928
298.716
298.602
298.529
298.47
298.417
298.365
298.313
298.261
298.208
298.155
298.101
298.047
297.994
297.94
297.887
297.836
297.786
297.739
297.696
297.657
297.624
297.596
297.576
297.561
297.548
297.534
297.511
297.471
297.396
297.265
297.059
296.757
296.351
295.848
295.285
303.894
301.878
300.441
299.596
299.156
298.937
298.822
298.752
298.698
298.65
298.603
298.556
298.509
298.46
298.41
298.36
298.309
298.257
298.205
298.154
298.103
298.054
298.007
297.963
297.924
297.889
297.86
297.837
297.82
297.805
297.787
297.761
297.715
297.632
297.491
297.267
296.938
296.493
295.939
295.315
303.961
302.051
300.662
299.825
299.379
299.154
299.037
298.968
298.917
298.874
298.833
298.791
298.747
298.703
298.657
298.61
298.562
298.513
298.464
298.414
298.365
298.317
298.27
298.226
298.186
298.15
298.119
298.093
298.072
298.053
298.032
298
297.949
297.858
297.706
297.466
297.112
296.631
296.027
295.345
304.023
302.212
300.872
300.045
299.594
299.362
299.242
299.173
299.125
299.085
299.048
299.01
298.971
298.931
298.889
298.846
298.802
298.756
298.709
298.662
298.615
298.568
298.523
298.479
298.438
298.401
298.368
298.34
298.315
298.292
298.265
298.228
298.171
298.073
297.911
297.657
297.281
296.765
296.114
295.375
304.079
302.361
301.069
300.254
299.799
299.56
299.435
299.364
299.318
299.28
299.246
299.212
299.177
299.141
299.103
299.064
299.023
298.981
298.937
298.893
298.849
298.804
298.761
298.718
298.677
298.639
298.605
298.574
298.546
298.518
298.487
298.445
298.381
298.276
298.106
297.84
297.444
296.896
296.2
295.404
304.13
302.5
301.254
300.452
299.993
299.747
299.616
299.542
299.494
299.458
299.426
299.395
299.363
299.33
299.296
299.26
299.223
299.184
299.145
299.104
299.063
299.021
298.98
298.939
298.899
298.862
298.826
298.793
298.763
298.731
298.696
298.649
298.579
298.469
298.291
298.014
297.601
297.024
296.283
295.433
304.178
302.628
301.427
300.637
300.175
299.921
299.783
299.705
299.655
299.618
299.587
299.557
299.528
299.498
299.467
299.435
299.401
299.366
299.33
299.293
299.255
299.217
299.178
299.14
299.102
299.065
299.03
298.996
298.963
298.929
298.89
298.839
298.765
298.649
298.466
298.18
297.752
297.148
296.366
295.462
304.221
302.747
301.589
300.812
300.347
300.085
299.939
299.855
299.801
299.763
299.731
299.702
299.674
299.646
299.618
299.588
299.558
299.526
299.494
299.46
299.426
299.39
299.355
299.319
299.284
299.249
299.214
299.181
299.146
299.11
299.068
299.014
298.937
298.817
298.63
298.338
297.898
297.269
296.448
295.491
304.261
302.858
301.74
300.977
300.509
300.238
300.084
299.993
299.935
299.894
299.861
299.832
299.804
299.778
299.751
299.723
299.695
299.667
299.637
299.606
299.575
299.543
299.511
299.478
299.445
299.412
299.379
299.346
299.312
299.275
299.231
299.175
299.096
298.975
298.786
298.49
298.039
297.389
296.529
295.519
304.299
302.961
301.883
301.133
300.663
300.384
300.221
300.123
300.059
300.015
299.98
299.95
299.922
299.896
299.87
299.844
299.817
299.791
299.763
299.735
299.707
299.678
299.648
299.618
299.588
299.557
299.526
299.494
299.46
299.423
299.379
299.323
299.242
299.122
298.933
298.635
298.177
297.508
296.611
295.549
304.334
303.058
302.018
301.282
300.81
300.524
300.352
300.247
300.178
300.13
300.092
300.061
300.032
300.006
299.98
299.954
299.929
299.903
299.877
299.851
299.824
299.797
299.77
299.742
299.714
299.685
299.656
299.626
299.593
299.557
299.514
299.458
299.379
299.26
299.073
298.777
298.313
297.626
296.693
295.578
304.367
303.15
302.148
301.426
300.954
300.661
300.481
300.369
300.296
300.244
300.203
300.17
300.14
300.112
300.086
300.06
300.034
300.009
299.983
299.958
299.932
299.907
299.881
299.854
299.828
299.801
299.773
299.744
299.713
299.679
299.637
299.583
299.506
299.391
299.209
298.915
298.449
297.746
296.778
295.608
304.399
303.239
302.273
301.567
301.095
300.797
300.611
300.494
300.416
300.36
300.318
300.282
300.251
300.222
300.194
300.167
300.14
300.114
300.088
300.062
300.037
300.011
299.986
299.96
299.935
299.909
299.882
299.855
299.825
299.792
299.752
299.701
299.628
299.518
299.342
299.053
298.586
297.868
296.864
295.639
304.429
303.324
302.395
301.706
301.237
300.936
300.745
300.623
300.542
300.484
300.44
300.403
300.37
300.339
300.31
300.281
300.252
300.224
300.197
300.17
300.143
300.117
300.091
300.065
300.039
300.014
299.988
299.961
299.933
299.901
299.864
299.816
299.748
299.644
299.475
299.193
298.726
297.995
296.955
295.672
304.459
303.408
302.516
301.845
301.382
301.079
300.885
300.761
300.678
300.619
300.573
300.535
300.501
300.468
300.437
300.406
300.375
300.345
300.315
300.286
300.257
300.229
300.202
300.175
300.148
300.122
300.096
300.069
300.042
300.011
299.976
299.932
299.869
299.771
299.611
299.336
298.871
298.127
297.05
295.706
304.488
303.491
302.637
301.986
301.53
301.228
301.034
300.908
300.825
300.766
300.721
300.682
300.647
300.614
300.58
300.547
300.514
300.481
300.448
300.416
300.385
300.354
300.324
300.295
300.267
300.239
300.212
300.185
300.157
300.127
300.094
300.052
299.994
299.904
299.751
299.485
299.023
298.266
297.152
295.743
304.517
303.573
302.757
302.129
301.683
301.385
301.192
301.068
300.986
300.928
300.884
300.846
300.811
300.777
300.742
300.707
300.671
300.635
300.599
300.564
300.529
300.495
300.462
300.43
300.399
300.369
300.34
300.311
300.283
300.254
300.221
300.182
300.128
300.044
299.9
299.642
299.183
298.414
297.26
295.783
304.546
303.655
302.88
302.277
301.844
301.552
301.361
301.24
301.161
301.106
301.064
301.028
300.994
300.959
300.924
300.887
300.849
300.81
300.771
300.732
300.694
300.656
300.62
300.584
300.55
300.517
300.485
300.454
300.424
300.394
300.362
300.324
300.273
300.195
300.059
299.809
299.353
298.572
297.377
295.826
304.574
303.738
303.006
302.429
302.011
301.727
301.542
301.425
301.35
301.299
301.26
301.227
301.194
301.161
301.125
301.087
301.047
301.006
300.964
300.922
300.88
300.839
300.799
300.759
300.721
300.685
300.65
300.616
300.583
300.551
300.518
300.48
300.432
300.358
300.228
299.986
299.534
298.741
297.503
295.872
304.603
303.822
303.133
302.587
302.187
301.913
301.735
301.622
301.553
301.506
301.472
301.442
301.412
301.38
301.345
301.307
301.266
301.223
301.179
301.134
301.088
301.044
301
300.956
300.915
300.874
300.835
300.798
300.762
300.727
300.691
300.653
300.605
300.534
300.41
300.175
299.727
298.922
297.638
295.923
304.633
303.907
303.264
302.749
302.37
302.108
301.938
301.833
301.769
301.727
301.697
301.671
301.645
301.615
301.581
301.544
301.502
301.458
301.412
301.365
301.317
301.269
301.222
301.175
301.129
301.085
301.042
301
300.96
300.921
300.882
300.841
300.793
300.723
300.603
300.375
299.931
299.115
297.785
295.979
304.662
303.993
303.398
302.918
302.561
302.314
302.153
302.055
301.997
301.96
301.934
301.913
301.89
301.863
301.831
301.794
301.754
301.709
301.662
301.613
301.563
301.512
301.462
301.412
301.362
301.314
301.267
301.221
301.177
301.133
301.09
301.045
300.994
300.924
300.807
300.585
300.146
299.32
297.943
296.039
304.692
304.081
303.535
303.092
302.76
302.529
302.379
302.288
302.236
302.204
302.182
302.164
302.144
302.12
302.09
302.055
302.015
301.971
301.923
301.873
301.822
301.769
301.716
301.663
301.611
301.559
301.508
301.457
301.408
301.359
301.311
301.262
301.207
301.135
301.02
300.804
300.371
299.537
298.113
296.105
304.722
304.17
303.676
303.271
302.966
302.754
302.616
302.533
302.486
302.457
302.438
302.423
302.405
302.383
302.355
302.321
302.282
302.238
302.19
302.139
302.087
302.033
301.978
301.923
301.868
301.813
301.758
301.703
301.649
301.596
301.542
301.487
301.427
301.352
301.238
301.028
300.602
299.764
298.294
296.177
304.752
304.261
303.82
303.456
303.18
302.988
302.862
302.786
302.744
302.718
302.7
302.686
302.669
302.647
302.62
302.586
302.547
302.503
302.455
302.404
302.351
302.296
302.24
302.183
302.126
302.068
302.01
301.952
301.894
301.836
301.777
301.716
301.65
301.571
301.457
301.252
300.838
300
298.486
296.255
304.784
304.354
303.967
303.645
303.402
303.23
303.117
303.048
303.008
302.982
302.964
302.948
302.929
302.906
302.877
302.843
302.803
302.759
302.711
302.66
302.606
302.551
302.494
302.436
302.377
302.317
302.256
302.195
302.134
302.071
302.007
301.94
301.869
301.786
301.671
301.472
301.071
300.24
298.688
296.339
304.815
304.448
304.116
303.839
303.629
303.479
303.378
303.314
303.274
303.246
303.224
303.203
303.18
303.153
303.121
303.084
303.042
302.997
302.948
302.896
302.842
302.786
302.728
302.669
302.609
302.548
302.486
302.422
302.357
302.291
302.223
302.152
302.076
301.988
301.872
301.681
301.296
300.479
298.898
296.428
304.846
304.542
304.266
304.036
303.858
303.729
303.638
303.576
303.532
303.498
303.469
303.44
303.41
303.376
303.339
303.298
303.253
303.206
303.155
303.102
303.047
302.991
302.933
302.873
302.812
302.75
302.686
302.621
302.554
302.485
302.413
302.339
302.259
302.168
302.052
301.868
301.504
300.712
299.111
296.523
304.876
304.633
304.412
304.225
304.077
303.965
303.881
303.817
303.767
303.724
303.685
303.646
303.606
303.565
303.521
303.475
303.427
303.376
303.323
303.269
303.213
303.156
303.097
303.037
302.975
302.912
302.847
302.781
302.712
302.641
302.567
302.489
302.407
302.314
302.199
302.023
301.682
300.922
299.317
296.618
304.903
304.713
304.539
304.39
304.266
304.166
304.084
304.016
303.957
303.903
303.853
303.804
303.755
303.705
303.655
303.604
303.552
303.499
303.444
303.388
303.331
303.273
303.214
303.153
303.09
303.026
302.96
302.893
302.822
302.75
302.674
302.594
302.509
302.415
302.3
302.132
301.814
301.094
299.503
296.707
304.922
304.77
304.631
304.507
304.399
304.305
304.222
304.148
304.081
304.018
303.959
303.901
303.845
303.79
303.735
303.68
303.625
303.57
303.513
303.456
303.398
303.339
303.279
303.217
303.154
303.089
303.022
302.953
302.882
302.808
302.731
302.649
302.562
302.466
302.349
302.18
301.873
301.184
299.62
296.771
304.931
304.798
304.673
304.56
304.457
304.365
304.28
304.203
304.131
304.064
304
303.939
303.88
303.822
303.765
303.708
303.652
303.595
303.538
303.48
303.422
303.362
303.301
303.239
303.175
303.11
303.042
302.972
302.9
302.825
302.746
302.663
302.575
302.475
302.353
302.175
301.854
301.164
299.629
296.784
303.087
300.109
298.614
297.999
297.722
297.565
297.453
297.359
297.274
297.195
297.119
297.047
296.977
296.909
296.844
296.781
296.719
296.659
296.6
296.542
296.485
296.429
296.373
296.318
296.263
296.207
296.152
296.095
296.037
295.977
295.914
295.848
295.778
295.703
295.621
295.531
295.431
295.321
295.199
295.068
303.076
300.055
298.54
297.954
297.704
297.56
297.454
297.364
297.281
297.204
297.129
297.058
296.99
296.923
296.859
296.796
296.735
296.675
296.617
296.56
296.504
296.448
296.393
296.339
296.285
296.232
296.178
296.124
296.069
296.013
295.955
295.895
295.831
295.762
295.683
295.594
295.489
295.368
295.229
295.078
303.128
300.155
298.614
298.001
297.746
297.605
297.502
297.414
297.334
297.257
297.185
297.115
297.048
296.982
296.919
296.857
296.797
296.738
296.681
296.624
296.569
296.515
296.461
296.409
296.358
296.309
296.26
296.212
296.166
296.119
296.073
296.024
295.972
295.911
295.836
295.743
295.622
295.472
295.295
295.099
303.231
300.359
298.79
298.13
297.853
297.707
297.604
297.518
297.439
297.365
297.294
297.226
297.16
297.095
297.033
296.972
296.912
296.854
296.797
296.742
296.687
296.635
296.583
296.534
296.487
296.443
296.401
296.362
296.326
296.292
296.259
296.224
296.184
296.132
296.057
295.954
295.807
295.615
295.384
295.127
303.342
300.587
299.01
298.309
298.008
297.855
297.752
297.668
297.592
297.521
297.452
297.385
297.321
297.258
297.197
297.136
297.077
297.02
296.963
296.908
296.855
296.803
296.754
296.708
296.665
296.626
296.591
296.561
296.535
296.512
296.492
296.468
296.437
296.389
296.31
296.191
296.013
295.774
295.482
295.16
303.455
300.83
299.259
298.52
298.197
298.036
297.935
297.854
297.782
297.714
297.648
297.585
297.522
297.461
297.401
297.342
297.283
297.226
297.17
297.116
297.063
297.012
296.964
296.92
296.88
296.845
296.816
296.792
296.775
296.761
296.749
296.732
296.706
296.658
296.571
296.432
296.222
295.934
295.582
295.193
303.562
301.07
299.518
298.752
298.407
298.24
298.14
298.064
297.997
297.933
297.872
297.811
297.751
297.692
297.634
297.576
297.519
297.463
297.407
297.353
297.301
297.25
297.203
297.16
297.122
297.089
297.063
297.044
297.031
297.022
297.014
297
296.976
296.924
296.826
296.666
296.424
296.091
295.682
295.225
303.661
301.299
299.775
298.992
298.629
298.456
298.357
298.286
298.225
298.167
298.11
298.054
297.998
297.942
297.886
297.83
297.774
297.719
297.664
297.61
297.558
297.508
297.461
297.418
297.38
297.348
297.323
297.305
297.294
297.286
297.279
297.265
297.239
297.181
297.072
296.892
296.621
296.244
295.779
295.258
303.752
301.516
300.029
299.236
298.858
298.677
298.579
298.512
298.457
298.405
298.353
298.302
298.25
298.197
298.145
298.091
298.038
297.984
297.93
297.877
297.826
297.776
297.729
297.686
297.647
297.614
297.588
297.569
297.557
297.548
297.539
297.523
297.492
297.427
297.307
297.11
296.81
296.394
295.874
295.289
303.835
301.72
300.274
299.477
299.086
298.898
298.799
298.736
298.686
298.639
298.594
298.547
298.5
298.451
298.402
298.352
298.301
298.249
298.197
298.146
298.095
298.045
297.998
297.954
297.915
297.88
297.852
297.831
297.816
297.804
297.792
297.771
297.736
297.663
297.532
297.318
296.993
296.54
295.967
295.321
303.91
301.909
300.507
299.71
299.309
299.114
299.014
298.952
298.906
298.865
298.824
298.783
298.74
298.696
298.65
298.604
298.556
298.507
298.457
298.408
298.358
298.31
298.263
298.219
298.178
298.142
298.112
298.087
298.068
298.053
298.036
298.01
297.968
297.888
297.747
297.518
297.17
296.682
296.058
295.352
303.979
302.085
300.729
299.935
299.525
299.323
299.219
299.158
299.115
299.077
299.041
299.004
298.966
298.926
298.884
298.841
298.797
298.751
298.704
298.657
298.61
298.563
298.517
298.473
298.432
298.395
298.362
298.335
298.312
298.291
298.269
298.238
298.189
298.101
297.951
297.709
297.34
296.819
296.148
295.382
304.041
302.247
300.936
300.149
299.731
299.52
299.412
299.35
299.308
299.273
299.24
299.207
299.172
299.136
299.099
299.06
299.019
298.977
298.934
298.89
298.845
298.8
298.756
298.713
298.673
298.635
298.6
298.57
298.543
298.518
298.491
298.454
298.399
298.304
298.146
297.892
297.505
296.953
296.235
295.412
304.097
302.397
301.131
300.351
299.926
299.707
299.593
299.528
299.485
299.451
299.421
299.39
299.359
299.327
299.293
299.257
299.22
299.182
299.142
299.102
299.06
299.018
298.977
298.936
298.896
298.858
298.823
298.791
298.761
298.732
298.699
298.658
298.596
298.496
298.331
298.067
297.663
297.082
296.321
295.442
304.148
302.535
301.313
300.541
300.11
299.882
299.76
299.691
299.646
299.612
299.582
299.554
299.525
299.496
299.465
299.433
299.399
299.364
299.328
299.291
299.254
299.215
299.176
299.138
299.1
299.063
299.028
298.995
298.963
298.93
298.894
298.848
298.781
298.675
298.505
298.233
297.815
297.209
296.407
295.472
304.195
302.663
301.483
300.721
300.283
300.045
299.915
299.841
299.792
299.757
299.727
299.699
299.672
299.644
299.616
299.587
299.557
299.525
299.493
299.459
299.425
299.39
299.354
299.318
299.283
299.248
299.213
299.18
299.147
299.112
299.073
299.023
298.953
298.843
298.669
298.392
297.963
297.334
296.491
295.502
304.238
302.781
301.641
300.89
300.447
300.199
300.06
299.979
299.926
299.888
299.857
299.829
299.802
299.776
299.75
299.722
299.695
299.666
299.636
299.606
299.575
299.543
299.511
299.478
299.445
299.412
299.379
299.346
299.313
299.278
299.236
299.185
299.111
299
298.824
298.544
298.105
297.456
296.575
295.532
304.278
302.89
301.79
301.05
300.602
300.345
300.197
300.108
300.05
300.009
299.976
299.947
299.92
299.894
299.869
299.843
299.817
299.79
299.763
299.735
299.707
299.678
299.648
299.618
299.588
299.557
299.526
299.495
299.462
299.426
299.385
299.332
299.258
299.146
298.971
298.69
298.246
297.578
296.661
295.562
304.315
302.993
301.932
301.203
300.751
300.485
300.328
300.232
300.169
300.124
300.088
300.058
300.03
300.004
299.979
299.953
299.928
299.903
299.877
299.851
299.824
299.797
299.77
299.743
299.714
299.686
299.657
299.627
299.595
299.56
299.519
299.467
299.394
299.284
299.111
298.832
298.384
297.7
296.746
295.593
304.35
303.091
302.066
301.35
300.896
300.622
300.457
300.354
300.286
300.238
300.2
300.167
300.138
300.111
300.085
300.059
300.034
300.008
299.983
299.958
299.932
299.907
299.881
299.855
299.829
299.802
299.774
299.746
299.716
299.682
299.642
299.592
299.521
299.415
299.247
298.972
298.523
297.824
296.835
295.624
304.383
303.183
302.196
301.493
301.039
300.758
300.587
300.478
300.406
300.354
300.314
300.28
300.249
300.221
300.193
300.166
300.14
300.114
300.088
300.062
300.037
300.011
299.986
299.961
299.935
299.91
299.883
299.856
299.828
299.796
299.758
299.71
299.643
299.542
299.38
299.11
298.662
297.951
296.926
295.657
304.415
303.273
302.322
301.635
301.181
300.897
300.72
300.607
300.532
300.478
300.436
300.4
300.368
300.338
300.309
300.28
300.252
300.224
300.197
300.17
300.143
300.117
300.091
300.066
300.04
300.015
299.989
299.963
299.935
299.905
299.869
299.824
299.762
299.667
299.513
299.251
298.806
298.083
297.022
295.692
304.446
303.36
302.447
301.776
301.327
301.04
300.86
300.745
300.668
300.613
300.57
300.533
300.5
300.468
300.437
300.406
300.375
300.345
300.315
300.286
300.257
300.229
300.202
300.175
300.149
300.123
300.097
300.071
300.044
300.015
299.982
299.94
299.883
299.795
299.649
299.395
298.954
298.22
297.123
295.728
304.476
303.446
302.571
301.919
301.476
301.189
301.008
300.892
300.815
300.761
300.718
300.681
300.647
300.614
300.58
300.547
300.514
300.481
300.449
300.416
300.385
300.354
300.325
300.296
300.267
300.24
300.213
300.186
300.159
300.131
300.099
300.061
300.008
299.927
299.79
299.546
299.11
298.366
297.231
295.768
304.506
303.531
302.694
302.064
301.629
301.346
301.166
301.051
300.976
300.923
300.882
300.846
300.812
300.778
300.743
300.708
300.672
300.636
300.6
300.565
300.53
300.496
300.463
300.431
300.4
300.371
300.342
300.314
300.286
300.257
300.227
300.19
300.142
300.067
299.939
299.705
299.274
298.521
297.347
295.81
304.536
303.616
302.821
302.214
301.791
301.512
301.334
301.222
301.151
301.101
301.062
301.028
300.995
300.961
300.926
300.889
300.851
300.812
300.773
300.734
300.695
300.658
300.621
300.586
300.552
300.519
300.487
300.457
300.427
300.398
300.367
300.332
300.287
300.218
300.097
299.873
299.449
298.687
297.472
295.856
304.566
303.702
302.949
302.368
301.959
301.687
301.515
301.407
301.34
301.294
301.259
301.228
301.197
301.164
301.128
301.09
301.05
301.009
300.967
300.925
300.883
300.841
300.801
300.762
300.724
300.688
300.653
300.619
300.587
300.556
300.524
300.489
300.445
300.38
300.267
300.052
299.634
298.865
297.607
295.907
304.596
303.788
303.079
302.527
302.135
301.873
301.706
301.604
301.542
301.502
301.471
301.443
301.415
301.384
301.35
301.311
301.27
301.227
301.183
301.137
301.092
301.047
301.003
300.96
300.918
300.878
300.839
300.802
300.767
300.732
300.698
300.662
300.619
300.556
300.449
300.242
299.831
299.055
297.754
295.963
304.626
303.876
303.213
302.692
302.318
302.068
301.909
301.814
301.758
301.723
301.696
301.673
301.649
301.62
301.587
301.55
301.508
301.464
301.418
301.37
301.322
301.274
301.226
301.18
301.134
301.09
301.047
301.006
300.966
300.928
300.89
300.852
300.807
300.745
300.642
300.442
300.04
299.258
297.913
296.024
304.656
303.964
303.35
302.862
302.51
302.273
302.123
302.035
301.986
301.955
301.934
301.915
301.895
301.869
301.838
301.802
301.761
301.716
301.669
301.62
301.57
301.519
301.468
301.418
301.369
301.321
301.274
301.228
301.184
301.141
301.099
301.056
301.009
300.947
300.846
300.654
300.26
299.474
298.086
296.091
304.687
304.055
303.491
303.038
302.709
302.488
302.349
302.268
302.225
302.198
302.182
302.167
302.15
302.127
302.099
302.064
302.024
301.98
301.932
301.882
301.83
301.777
301.724
301.671
301.619
301.567
301.516
301.466
301.417
301.369
301.322
301.274
301.222
301.158
301.059
300.873
300.488
299.703
298.272
296.166
304.717
304.147
303.635
303.221
302.918
302.713
302.585
302.511
302.474
302.451
302.438
302.426
302.412
302.391
302.364
302.331
302.292
302.248
302.2
302.149
302.097
302.043
301.988
301.933
301.878
301.823
301.768
301.714
301.66
301.607
301.554
301.5
301.443
301.375
301.277
301.098
300.724
299.943
298.472
296.248
304.749
304.24
303.783
303.409
303.134
302.948
302.832
302.765
302.732
302.712
302.7
302.69
302.676
302.656
302.63
302.597
302.558
302.515
302.467
302.416
302.363
302.308
302.252
302.195
302.138
302.081
302.023
301.965
301.907
301.849
301.791
301.731
301.668
301.595
301.495
301.323
300.964
300.193
298.686
296.337
304.78
304.336
303.934
303.603
303.359
303.193
303.088
303.029
302.997
302.978
302.965
302.953
302.938
302.917
302.889
302.856
302.816
302.773
302.725
302.673
302.62
302.564
302.507
302.449
302.391
302.331
302.271
302.21
302.149
302.087
302.023
301.958
301.889
301.811
301.709
301.542
301.201
300.445
298.911
296.435
304.812
304.433
304.088
303.803
303.591
303.447
303.353
303.298
303.265
303.244
303.227
303.21
303.19
303.165
303.134
303.098
303.057
303.012
302.963
302.911
302.857
302.801
302.744
302.685
302.625
302.564
302.502
302.439
302.375
302.309
302.241
302.171
302.097
302.015
301.911
301.749
301.429
300.699
299.146
296.54
304.844
304.53
304.245
304.007
303.828
303.704
303.619
303.566
303.529
303.501
303.477
303.451
303.423
303.391
303.355
303.314
303.27
303.223
303.172
303.119
303.065
303.008
302.95
302.891
302.83
302.769
302.705
302.64
302.574
302.505
302.434
302.361
302.282
302.196
302.091
301.936
301.636
300.942
299.384
296.651
304.875
304.625
304.398
304.208
304.06
303.953
303.874
303.817
303.772
303.734
303.697
303.661
303.622
303.582
303.538
303.493
303.444
303.394
303.341
303.287
303.232
303.175
303.116
303.056
302.995
302.932
302.868
302.802
302.733
302.663
302.59
302.513
302.432
302.343
302.238
302.09
301.812
301.157
299.607
296.76
304.903
304.71
304.535
304.386
304.264
304.168
304.09
304.025
303.97
303.919
303.87
303.821
303.773
303.723
303.673
303.622
303.57
303.516
303.462
303.406
303.349
303.291
303.232
303.172
303.109
303.046
302.98
302.913
302.844
302.771
302.696
302.618
302.535
302.444
302.338
302.194
301.938
301.329
299.807
296.861
304.923
304.772
304.635
304.513
304.407
304.316
304.235
304.163
304.097
304.035
303.975
303.918
303.861
303.806
303.751
303.695
303.64
303.584
303.528
303.471
303.413
303.354
303.294
303.233
303.17
303.106
303.039
302.971
302.9
302.826
302.749
302.669
302.584
302.49
302.381
302.235
301.982
301.4
299.904
296.912
304.932
304.8
304.679
304.568
304.467
304.376
304.292
304.215
304.144
304.076
304.012
303.95
303.89
303.832
303.775
303.718
303.661
303.605
303.547
303.49
303.431
303.372
303.311
303.249
303.185
303.12
303.052
302.983
302.911
302.836
302.758
302.676
302.588
302.491
302.375
302.215
301.936
301.325
299.849
296.899
303.037
300.011
298.541
297.961
297.703
297.554
297.444
297.352
297.267
297.188
297.113
297.041
296.971
296.904
296.839
296.775
296.714
296.654
296.595
296.537
296.48
296.424
296.368
296.313
296.258
296.202
296.146
296.089
296.031
295.971
295.908
295.842
295.772
295.697
295.616
295.527
295.428
295.319
295.198
295.067
303.011
299.926
298.443
297.906
297.679
297.545
297.442
297.353
297.271
297.194
297.12
297.049
296.981
296.915
296.851
296.788
296.727
296.668
296.61
296.552
296.496
296.441
296.386
296.332
296.278
296.224
296.17
296.116
296.061
296.005
295.948
295.888
295.825
295.757
295.68
295.592
295.488
295.367
295.229
295.077
303.059
300.018
298.508
297.945
297.718
297.587
297.488
297.401
297.322
297.246
297.174
297.104
297.037
296.972
296.909
296.848
296.788
296.729
296.671
296.615
296.56
296.506
296.453
296.401
296.35
296.3
296.251
296.204
296.157
296.112
296.066
296.02
295.97
295.912
295.84
295.748
295.628
295.477
295.297
295.099
303.162
300.221
298.681
298.071
297.822
297.688
297.589
297.505
297.427
297.353
297.283
297.215
297.149
297.085
297.023
296.962
296.903
296.845
296.788
296.732
296.678
296.625
296.574
296.525
296.478
296.434
296.393
296.354
296.319
296.287
296.256
296.224
296.188
296.14
296.068
295.968
295.82
295.625
295.389
295.128
303.278
300.454
298.901
298.248
297.977
297.836
297.738
297.656
297.581
297.51
297.441
297.375
297.311
297.248
297.187
297.127
297.068
297.011
296.954
296.9
296.846
296.795
296.745
296.699
296.656
296.617
296.583
296.554
296.53
296.51
296.492
296.473
296.446
296.403
296.328
296.212
296.032
295.788
295.49
295.161
303.398
300.706
299.152
298.457
298.164
298.018
297.921
297.843
297.772
297.704
297.639
297.575
297.513
297.452
297.392
297.333
297.275
297.218
297.162
297.108
297.055
297.004
296.956
296.912
296.872
296.838
296.809
296.787
296.771
296.76
296.751
296.739
296.718
296.676
296.593
296.457
296.245
295.951
295.592
295.195
303.513
300.958
299.416
298.69
298.374
298.221
298.127
298.053
297.987
297.924
297.863
297.803
297.743
297.685
297.626
297.569
297.512
297.456
297.4
297.346
297.293
297.243
297.196
297.153
297.115
297.083
297.057
297.04
297.029
297.023
297.018
297.008
296.989
296.943
296.85
296.694
296.451
296.111
295.693
295.228
303.618
301.197
299.679
298.931
298.595
298.437
298.345
298.276
298.216
298.159
298.102
298.046
297.99
297.935
297.879
297.823
297.768
297.712
297.658
297.604
297.552
297.501
297.454
297.412
297.374
297.342
297.318
297.301
297.292
297.287
297.283
297.273
297.252
297.2
297.097
296.921
296.65
296.267
295.792
295.26
303.715
301.425
299.94
299.176
298.823
298.657
298.567
298.503
298.449
298.398
298.347
298.295
298.244
298.191
298.139
298.085
298.032
297.978
297.925
297.872
297.82
297.77
297.723
297.68
297.641
297.609
297.583
297.566
297.555
297.549
297.543
297.53
297.506
297.446
297.332
297.139
296.841
296.419
295.888
295.292
303.803
301.638
300.191
299.418
299.051
298.878
298.787
298.728
298.679
298.633
298.588
298.542
298.494
298.446
298.397
298.347
298.296
298.244
298.192
298.141
298.09
298.04
297.993
297.949
297.91
297.875
297.848
297.828
297.814
297.805
297.795
297.778
297.748
297.681
297.557
297.348
297.025
296.566
295.983
295.324
303.883
301.836
300.43
299.654
299.275
299.094
299.002
298.944
298.9
298.859
298.819
298.778
298.736
298.691
298.646
298.599
298.551
298.503
298.453
298.404
298.354
298.305
298.258
298.214
298.174
298.138
298.108
298.084
298.067
298.053
298.039
298.016
297.979
297.905
297.77
297.547
297.202
296.709
296.075
295.355
303.955
302.02
300.656
299.88
299.491
299.303
299.207
299.15
299.108
299.072
299.036
299
298.962
298.922
298.88
298.837
298.793
298.748
298.701
298.654
298.606
298.559
298.513
298.47
298.429
298.391
298.359
298.332
298.31
298.291
298.272
298.243
298.199
298.118
297.974
297.738
297.373
296.848
296.165
295.386
304.02
302.188
300.869
300.096
299.697
299.5
299.4
299.342
299.302
299.268
299.236
299.203
299.169
299.133
299.096
299.057
299.016
298.974
298.931
298.887
298.842
298.797
298.753
298.71
298.67
298.632
298.597
298.568
298.542
298.518
298.493
298.459
298.408
298.32
298.168
297.921
297.538
296.983
296.254
295.417