/*--------------------------------*- C++ -*----------------------------------*\
  =========                 |
  \\      /  F ield         | OpenFOAM: The Open Source CFD Toolbox
   \\    /   O peration     | Website:  https://openfoam.org
    \\  /    A nd           | Version:  12
     \\/     M anipulation  |
\*---------------------------------------------------------------------------*/
FoamFile
{
    format      ascii;
    class       volVectorField;
    location    "500";
    object      U;
}
// * * * * * * * * * * * * * * * * * * * * * * * * * * * * * * * * * * * * * //

dimensions      [0 1 -1 0 0 0 0];

internalField   nonuniform List<vector> 
8000
(
(-0.00197255 0.00199846 -0.000279579)
(-0.00492473 0.000728421 -0.000366892)
(-0.00519327 6.89983e-05 -0.00017723)
(-0.00487329 -0.000174839 -7.44081e-05)
(-0.00442163 -0.000157591 -2.96227e-05)
(-0.00411283 -0.000100954 -1.43643e-05)
(-0.00392426 -5.68522e-05 -9.47164e-06)
(-0.00381293 -2.95641e-05 -8.60956e-06)
(-0.00374579 -1.38611e-05 -8.70674e-06)
(-0.003704 -5.04714e-06 -9.00669e-06)
(-0.00367617 -1.60544e-07 -9.23947e-06)
(-0.00365583 2.49263e-06 -9.37937e-06)
(-0.00363968 3.9867e-06 -9.31656e-06)
(-0.0036262 4.7946e-06 -9.20578e-06)
(-0.00361317 4.92808e-06 -9.29075e-06)
(-0.00359892 4.68414e-06 -9.20864e-06)
(-0.00358356 4.31484e-06 -9.01146e-06)
(-0.00356748 3.86439e-06 -8.72199e-06)
(-0.0035506 3.12899e-06 -8.36901e-06)
(-0.00353372 2.53615e-06 -7.78018e-06)
(-0.00351894 2.46458e-06 -7.10607e-06)
(-0.0035084 3.41725e-06 -6.25265e-06)
(-0.00350453 3.74499e-06 -4.89545e-06)
(-0.00351009 5.09926e-06 -3.90784e-06)
(-0.0035296 8.39484e-06 -3.13136e-06)
(-0.0035676 1.34731e-05 -2.62628e-06)
(-0.0036285 2.08007e-05 -2.78547e-06)
(-0.0037156 3.05956e-05 -4.02014e-06)
(-0.00382956 4.27466e-05 -6.85868e-06)
(-0.00396764 5.68299e-05 -1.17015e-05)
(-0.00412027 7.38327e-05 -1.8875e-05)
(-0.00427622 8.34621e-05 -2.67552e-05)
(-0.00437909 8.42567e-05 -4.45294e-05)
(-0.00437714 7.12734e-05 -6.53752e-05)
(-0.0042098 3.98219e-05 -8.53695e-05)
(-0.00381233 -1.97944e-05 -0.000108666)
(-0.00313506 -9.21261e-05 -0.000120372)
(-0.00222272 -0.000168989 -0.000114925)
(-0.00116092 -0.000228608 -8.44072e-05)
(-0.000249119 -0.000221381 -4.15945e-05)
(-0.00150714 0.00640289 -0.000277284)
(-0.00470717 0.0036344 -0.00040011)
(-0.00602353 0.000763138 -0.000167984)
(-0.00640542 -0.000172713 -0.000102626)
(-0.0063395 -0.00035536 -4.65068e-05)
(-0.00625233 -0.00026697 -2.13302e-05)
(-0.00617437 -0.00016387 -1.20442e-05)
(-0.00612206 -9.13025e-05 -8.71618e-06)
(-0.00608798 -4.60535e-05 -7.61481e-06)
(-0.00606668 -1.9262e-05 -7.33296e-06)
(-0.00605278 -4.19608e-06 -7.32086e-06)
(-0.00604226 3.78001e-06 -7.42693e-06)
(-0.006033 8.25573e-06 -7.24029e-06)
(-0.0060239 1.01203e-05 -6.92335e-06)
(-0.00601317 9.03525e-06 -7.2172e-06)
(-0.005999 6.38125e-06 -7.2095e-06)
(-0.00598227 3.78236e-06 -6.99268e-06)
(-0.00596426 1.67187e-06 -6.71062e-06)
(-0.00594519 -3.63872e-07 -6.56577e-06)
(-0.0059264 1.69481e-07 -6.17813e-06)
(-0.00591162 3.433e-06 -5.50777e-06)
(-0.00590344 8.49395e-06 -3.48067e-06)
(-0.00590519 1.90364e-05 -2.73603e-06)
(-0.00592528 3.64204e-05 -2.31884e-06)
(-0.00596673 6.16605e-05 -1.60124e-06)
(-0.00603663 9.50154e-05 -1.18131e-06)
(-0.00613883 0.000136098 -1.27477e-06)
(-0.00627507 0.000182986 -2.24797e-06)
(-0.00644157 0.000231261 -4.71012e-06)
(-0.00662575 0.000275948 -9.21377e-06)
(-0.0068155 0.000301457 -8.17129e-06)
(-0.00697457 0.000280021 -1.70597e-05)
(-0.0070347 0.000204894 -3.65184e-05)
(-0.00690297 2.97704e-05 -5.95032e-05)
(-0.006518 -0.000213748 -8.89697e-05)
(-0.00578257 -0.000567514 -0.00012726)
(-0.00464729 -0.000937057 -0.000150559)
(-0.00320384 -0.00125405 -0.000153056)
(-0.00160275 -0.00138102 -0.000117587)
(-0.000272674 -0.000993363 -5.86051e-05)
(-0.000807889 0.00993629 -0.000293947)
(-0.0034941 0.00653928 -0.000310385)
(-0.00498361 0.00249161 -7.81564e-05)
(-0.00603842 0.000420821 -8.28716e-05)
(-0.00633149 -0.000154076 -2.5272e-05)
(-0.00649489 -0.00019391 -1.41886e-05)
(-0.00656241 -0.000137758 -6.83875e-06)
(-0.00660525 -7.55866e-05 -4.75917e-06)
(-0.00663422 -3.16102e-05 -3.86569e-06)
(-0.0066572 -3.62174e-06 -3.67694e-06)
(-0.00667603 1.19283e-05 -3.80842e-06)
(-0.00669034 1.90644e-05 -4.28448e-06)
(-0.00670126 2.04529e-05 -3.36557e-06)
(-0.00670867 1.8125e-05 -2.18674e-06)
(-0.00671042 1.35959e-05 -2.89423e-06)
(-0.00670593 7.28024e-06 -3.49275e-06)
(-0.0066984 2.3905e-06 -3.38105e-06)
(-0.00668861 -8.52169e-07 -3.25045e-06)
(-0.00667656 -3.45535e-06 -3.68804e-06)
(-0.00666462 -2.05089e-06 -2.8258e-06)
(-0.00665549 4.06825e-06 -1.47677e-06)
(-0.00665281 1.56157e-05 -7.68739e-07)
(-0.00666152 4.05161e-05 -1.25237e-06)
(-0.00668612 7.77309e-05 -8.1296e-07)
(-0.00673165 0.000127855 -4.94565e-07)
(-0.00680269 0.00019092 -2.70962e-07)
(-0.00690155 0.000264341 -2.72935e-07)
(-0.0070275 0.00034186 -7.32298e-07)
(-0.00717216 0.000413186 -2.5057e-06)
(-0.00732684 0.000463741 5.32698e-07)
(-0.00748059 0.000459333 6.72047e-06)
(-0.00757003 0.000390233 -7.14938e-06)
(-0.00757039 0.00019049 -1.22312e-05)
(-0.00736738 -0.000171997 -3.98089e-05)
(-0.00692019 -0.000647361 -5.82778e-05)
(-0.00611608 -0.00131673 -0.000110945)
(-0.00487619 -0.00198961 -0.000136094)
(-0.00333902 -0.002534 -0.000142742)
(-0.00166034 -0.0027036 -0.000111367)
(-0.000267225 -0.00185688 -5.31944e-05)
(-0.000355604 0.0123518 -0.000262171)
(-0.00246808 0.00915349 -0.000197739)
(-0.00401263 0.00397898 -0.000113757)
(-0.0050759 0.00139957 -3.91225e-05)
(-0.00575446 0.000258814 -1.63549e-05)
(-0.00605177 1.83562e-05 -6.11174e-06)
(-0.00624153 -1.52866e-05 -3.63332e-06)
(-0.00636108 5.90312e-06 -1.67008e-06)
(-0.00644828 2.82911e-05 -1.02138e-06)
(-0.00651394 4.37644e-05 -6.60386e-07)
(-0.00656598 5.07517e-05 -5.95577e-07)
(-0.00660718 5.09844e-05 -6.48775e-07)
(-0.00664017 4.52332e-05 -4.71953e-07)
(-0.00666617 3.61267e-05 -5.10459e-07)
(-0.00668553 2.62673e-05 -9.59196e-07)
(-0.0066978 1.59822e-05 -1.59641e-06)
(-0.00670562 6.01433e-06 -1.30635e-06)
(-0.00670702 -1.14996e-06 -5.28397e-07)
(-0.00670326 -6.00754e-06 -8.02907e-07)
(-0.00669994 -5.69242e-06 -4.57536e-07)
(-0.00669666 9.68235e-07 9.03294e-07)
(-0.006698 2.26438e-05 5.30184e-08)
(-0.0067083 6.02501e-05 -4.88964e-07)
(-0.00672866 0.000113052 -6.08345e-07)
(-0.00676382 0.000183381 -5.29177e-07)
(-0.00681725 0.000269281 -3.18289e-07)
(-0.00689048 0.00036545 1.84064e-07)
(-0.00698291 0.000461607 6.91623e-07)
(-0.0070864 0.000543662 1.65804e-06)
(-0.00720527 0.000582431 1.23553e-05)
(-0.007319 0.000543747 1.24519e-05)
(-0.00736108 0.000411282 6.79185e-06)
(-0.00735146 0.000110335 5.69424e-06)
(-0.00714595 -0.000428115 -2.93232e-05)
(-0.00674326 -0.00114679 -1.09622e-05)
(-0.00599758 -0.00210897 -9.25903e-05)
(-0.00480379 -0.0031161 -0.000107765)
(-0.00330433 -0.00384608 -0.000120295)
(-0.00166449 -0.0040511 -0.000100127)
(-0.000268076 -0.00273252 -4.75319e-05)
(-0.000107572 0.0139963 -0.000213579)
(-0.00167876 0.0113278 -0.000139188)
(-0.00320156 0.00550193 -0.000112462)
(-0.00420033 0.00238845 2.84229e-05)
(-0.00501596 0.000840051 -1.24415e-05)
(-0.00540323 0.000323743 2.25877e-06)
(-0.0056625 0.000182099 -2.6751e-07)
(-0.00583227 0.000140424 1.00018e-06)
(-0.00596088 0.000128157 1.03415e-06)
(-0.00605991 0.000120788 1.34621e-06)
(-0.00613971 0.000111889 1.49239e-06)
(-0.00620439 0.000100036 1.57638e-06)
(-0.00625764 8.51643e-05 1.68693e-06)
(-0.00630149 6.87473e-05 1.6923e-06)
(-0.00633672 5.19861e-05 1.49091e-06)
(-0.00636347 3.53195e-05 1.22349e-06)
(-0.00638316 1.87408e-05 1.00839e-06)
(-0.00639675 4.54865e-06 7.80413e-07)
(-0.00640525 -3.32238e-06 4.11336e-07)
(-0.00641004 -4.25599e-06 3.5016e-08)
(-0.00641532 5.0185e-06 4.38096e-07)
(-0.00642244 3.1931e-05 -6.63982e-07)
(-0.00643167 7.74495e-05 -1.1605e-06)
(-0.00644567 0.000139713 -1.76497e-06)
(-0.00646674 0.000222238 -1.77198e-06)
(-0.00649894 0.000321805 -1.60183e-06)
(-0.00654315 0.000430556 -5.72584e-07)
(-0.00659726 0.000535841 1.13455e-06)
(-0.00666417 0.000618114 7.84858e-06)
(-0.00674474 0.000647375 1.96727e-05)
(-0.00681639 0.000576068 1.48321e-05)
(-0.00683871 0.000376491 2.07091e-05)
(-0.00686018 -5.43761e-06 4.46309e-05)
(-0.0067365 -0.000700269 5.95373e-06)
(-0.00640438 -0.00162545 -7.46097e-06)
(-0.00574109 -0.00286546 -5.05431e-05)
(-0.00467661 -0.00417147 -0.000129364)
(-0.00321614 -0.0051656 -8.37802e-05)
(-0.00166818 -0.00539313 -8.64485e-05)
(-0.000276279 -0.0036255 -4.36456e-05)
(3.18712e-05 0.0150606 -0.000160153)
(-0.00106553 0.0130579 -8.70134e-05)
(-0.00253818 0.00695242 1.52518e-05)
(-0.00354914 0.00320427 -1.63625e-08)
(-0.00422456 0.00147094 1.92998e-05)
(-0.00473894 0.00067561 8.79356e-06)
(-0.00501415 0.000410216 5.48599e-06)
(-0.00521609 0.000304022 3.51612e-06)
(-0.00536727 0.000253197 3.0867e-06)
(-0.00548822 0.000219722 2.98267e-06)
(-0.00558756 0.000191849 2.96354e-06)
(-0.00567025 0.000165341 2.93922e-06)
(-0.00573989 0.000138757 2.89765e-06)
(-0.00579858 0.000112358 2.7966e-06)
(-0.0058475 8.66294e-05 2.59799e-06)
(-0.00588735 6.20312e-05 2.33644e-06)
(-0.0059194 3.93503e-05 2.07171e-06)
(-0.00594491 2.06768e-05 1.74767e-06)
(-0.00596438 8.63976e-06 1.24029e-06)
(-0.0059784 5.70219e-06 6.77591e-07)
(-0.00598973 1.51666e-05 2.45005e-07)
(-0.00599806 4.3074e-05 -7.14654e-07)
(-0.00600567 9.0985e-05 -1.23983e-06)
(-0.0060123 0.000156273 -2.05437e-06)
(-0.00601822 0.000245459 -1.82814e-06)
(-0.00603031 0.000351569 -1.63242e-06)
(-0.00604984 0.000465079 -2.26107e-07)
(-0.0060769 0.000571735 2.83302e-06)
(-0.00611611 0.000647414 1.01418e-05)
(-0.00616453 0.000665698 1.45979e-05)
(-0.00619519 0.000571656 1.94102e-05)
(-0.00625574 0.000330286 4.41581e-05)
(-0.00629121 -0.000116639 4.78229e-05)
(-0.00622302 -0.000937722 5.84519e-05)
(-0.00594795 -0.00209433 -6.63477e-07)
(-0.00544433 -0.00355605 8.80278e-06)
(-0.00444269 -0.00520247 -0.000119022)
(-0.00318274 -0.00638841 -8.72584e-05)
(-0.0016347 -0.00673673 -6.4271e-05)
(-0.000291461 -0.00453063 -4.27685e-05)
(0.000107509 0.015698 -0.000118911)
(-0.000658641 0.0144 -4.71364e-05)
(-0.00197705 0.0081724 4.41476e-05)
(-0.00300232 0.00398077 -1.85193e-05)
(-0.00356236 0.00204264 2.83531e-05)
(-0.00408686 0.00105526 1.27209e-05)
(-0.00438837 0.000648398 8.29033e-06)
(-0.00460021 0.000480145 5.46647e-06)
(-0.00476152 0.000390285 4.50829e-06)
(-0.0048927 0.000331053 4.10111e-06)
(-0.00500249 0.000283958 3.93348e-06)
(-0.00509574 0.000242423 3.83413e-06)
(-0.00517583 0.000203675 3.72686e-06)
(-0.00524481 0.000166989 3.58823e-06)
(-0.00530407 0.000132187 3.37322e-06)
(-0.00535451 9.96301e-05 3.0883e-06)
(-0.00539711 7.01342e-05 2.72207e-06)
(-0.00543266 4.55218e-05 2.25116e-06)
(-0.00546148 2.83331e-05 1.64956e-06)
(-0.00548377 2.13278e-05 9.49973e-07)
(-0.00550092 2.80952e-05 3.03369e-07)
(-0.00551188 5.35899e-05 -5.40953e-07)
(-0.00552159 0.000102061 -4.78279e-07)
(-0.00552319 0.000164723 -3.0185e-06)
(-0.0055175 0.00025012 -2.87839e-06)
(-0.00551458 0.00036105 -2.55557e-06)
(-0.00551488 0.000475519 -7.37546e-07)
(-0.00552047 0.000581169 3.91372e-06)
(-0.00553744 0.000653027 1.12427e-05)
(-0.00556411 0.000658408 1.62427e-05)
(-0.00557656 0.000553581 2.07688e-05)
(-0.00565172 0.00030443 6.15673e-05)
(-0.00568907 -0.000275648 4.20074e-05)
(-0.00562747 -0.00120141 5.93541e-05)
(-0.00544781 -0.00249002 3.74736e-05)
(-0.00505738 -0.00422521 2.23379e-05)
(-0.00424543 -0.00608532 -6.66161e-05)
(-0.00305583 -0.00758896 -6.8731e-05)
(-0.0016246 -0.00806149 -4.74071e-05)
(-0.000294974 -0.00544234 -4.08322e-05)
(0.000147438 0.0160609 -9.10155e-05)
(-0.000378592 0.0154521 -2.37241e-05)
(-0.00149589 0.00927055 2.98694e-05)
(-0.00249867 0.00479017 3.35785e-05)
(-0.00309018 0.00247874 2.21663e-05)
(-0.0034925 0.00144159 2.46912e-05)
(-0.00382318 0.000895237 7.48765e-06)
(-0.00402809 0.000654725 7.44937e-06)
(-0.00418972 0.00052904 5.47244e-06)
(-0.00432028 0.00044533 4.92688e-06)
(-0.0044314 0.000380396 4.56295e-06)
(-0.00452721 0.000324674 4.36824e-06)
(-0.00461092 0.000274344 4.18589e-06)
(-0.00468445 0.000227896 4.00661e-06)
(-0.00474921 0.000184589 3.7608e-06)
(-0.004806 0.000144618 3.45788e-06)
(-0.00485562 0.000108675 3.06542e-06)
(-0.00489855 7.82975e-05 2.56271e-06)
(-0.00493487 5.56994e-05 1.91792e-06)
(-0.00496436 4.37667e-05 1.12791e-06)
(-0.0049874 4.60786e-05 2.68632e-07)
(-0.00500232 6.73503e-05 -9.13409e-07)
(-0.00501239 0.000110342 -6.11502e-07)
(-0.00501222 0.000164247 -2.25354e-06)
(-0.00500291 0.000251739 -2.54455e-06)
(-0.00499151 0.000358767 -2.07016e-06)
(-0.00497784 0.000471417 -3.07066e-07)
(-0.00496735 0.000567862 3.71708e-06)
(-0.00496395 0.00063789 1.03097e-05)
(-0.00497611 0.0006316 1.93193e-05)
(-0.00498011 0.000515932 2.47825e-05)
(-0.00501709 0.00023374 4.64329e-05)
(-0.00504757 -0.00039161 5.91407e-05)
(-0.00503698 -0.00141328 6.93064e-05)
(-0.0049201 -0.00285914 6.00612e-05)
(-0.00463341 -0.00479527 4.61783e-05)
(-0.00399769 -0.00694306 -3.11919e-05)
(-0.00290813 -0.00875334 -5.48706e-05)
(-0.00157935 -0.00934183 -3.342e-05)
(-0.000296082 -0.00635238 -3.65296e-05)
(0.000174606 0.0162306 -6.81509e-05)
(-0.000162287 0.0162602 2.07862e-07)
(-0.00111323 0.0102295 4.66244e-05)
(-0.00205018 0.00550297 6.4441e-05)
(-0.00269482 0.00291176 2.57167e-05)
(-0.00303703 0.00173694 9.87585e-06)
(-0.00330614 0.00113638 1.21627e-05)
(-0.00352086 0.000822732 8.39259e-06)
(-0.00367076 0.00066014 6.58863e-06)
(-0.00379405 0.000554035 5.43567e-06)
(-0.00389807 0.000473309 4.96263e-06)
(-0.00398888 0.000405262 4.65569e-06)
(-0.00406919 0.000344947 4.41589e-06)
(-0.00414103 0.00029024 4.21876e-06)
(-0.00420573 0.000239718 3.9536e-06)
(-0.00426386 0.000193458 3.65264e-06)
(-0.0043161 0.000151912 3.25801e-06)
(-0.00436272 0.000116365 2.76514e-06)
(-0.00440356 8.86913e-05 2.12962e-06)
(-0.00443806 7.16616e-05 1.33508e-06)
(-0.00446576 6.862e-05 3.98094e-07)
(-0.0044848 8.3862e-05 -8.58333e-07)
(-0.00449453 0.000119126 -1.39294e-06)
(-0.00449832 0.000165825 -7.86271e-07)
(-0.00449166 0.000244398 -2.32485e-06)
(-0.00447287 0.000344875 -1.69202e-06)
(-0.00445059 0.00045036 -2.91492e-07)
(-0.00442729 0.000546118 3.02857e-06)
(-0.00440782 0.000607269 9.05567e-06)
(-0.00440011 0.000590548 1.8543e-05)
(-0.00439239 0.000447499 2.82116e-05)
(-0.004405 0.000168326 4.32478e-05)
(-0.00442371 -0.000527129 6.32344e-05)
(-0.00443269 -0.00161488 7.49731e-05)
(-0.00436824 -0.00318289 7.64029e-05)
(-0.00416386 -0.00529835 6.30534e-05)
(-0.00369236 -0.00770571 1.08958e-05)
(-0.00274697 -0.00983502 -4.50728e-05)
(-0.00152024 -0.0105689 -2.34376e-05)
(-0.000293845 -0.00724678 -3.12633e-05)
(0.000185804 0.0162457 -5.44484e-05)
(-1.43216e-05 0.0168613 9.84749e-06)
(-0.000825722 0.0110322 4.4638e-05)
(-0.00166827 0.00615999 5.05267e-05)
(-0.00230354 0.00336612 3.27702e-05)
(-0.00267194 0.00198538 1.32514e-05)
(-0.00288719 0.00134498 1.26032e-05)
(-0.00307623 0.000977197 9.92333e-06)
(-0.00321655 0.000778243 7.06065e-06)
(-0.00332436 0.000650596 5.72026e-06)
(-0.00341473 0.000555968 5.11891e-06)
(-0.00349377 0.000477616 4.73128e-06)
(-0.00356411 0.000409288 4.43495e-06)
(-0.00362819 0.000348247 4.28056e-06)
(-0.00368721 0.00029225 3.98627e-06)
(-0.00374138 0.000241321 3.70338e-06)
(-0.00379139 0.000195602 3.32584e-06)
(-0.0038374 0.000156142 2.88163e-06)
(-0.00387905 0.000124319 2.29911e-06)
(-0.00391552 0.000102691 1.57738e-06)
(-0.00394581 9.41854e-05 6.94879e-07)
(-0.00396805 0.00010249 -4.48877e-07)
(-0.0039797 0.000130304 -1.19851e-06)
(-0.00398663 0.000171207 -9.06579e-08)
(-0.00398322 0.000234937 -2.15405e-06)
(-0.00396292 0.000326799 -1.48481e-06)
(-0.0039366 0.000423486 -2.46248e-07)
(-0.00390421 0.000509666 2.9579e-06)
(-0.00387124 0.000561144 8.54769e-06)
(-0.00384508 0.000532428 1.76452e-05)
(-0.00382541 0.00037342 2.74816e-05)
(-0.00381759 7.27663e-05 4.1095e-05)
(-0.00382068 -0.000658911 6.48294e-05)
(-0.00384078 -0.00180209 7.81128e-05)
(-0.00381447 -0.00347234 8.73086e-05)
(-0.00367547 -0.00573185 7.59312e-05)
(-0.0033602 -0.00837906 4.93605e-05)
(-0.00255265 -0.0108249 -4.02278e-05)
(-0.00144785 -0.0117204 -1.99568e-05)
(-0.000284638 -0.00811989 -2.37872e-05)
(0.000189316 0.0161896 -4.69506e-05)
(9.40928e-05 0.0173205 1.67349e-05)
(-0.000596178 0.0117317 4.44527e-05)
(-0.00135386 0.00678206 4.88504e-05)
(-0.00194986 0.00379454 3.74851e-05)
(-0.00233306 0.00225669 2.71223e-05)
(-0.00256681 0.00148633 1.0982e-05)
(-0.0027009 0.00111517 9.26003e-06)
(-0.0028236 0.000877913 7.86219e-06)
(-0.00291436 0.000728727 5.79983e-06)
(-0.00298591 0.000622258 5.17753e-06)
(-0.00304817 0.000535721 4.67591e-06)
(-0.00310317 0.000461587 4.2937e-06)
(-0.00315425 0.000396833 4.20753e-06)
(-0.0032025 0.000337258 3.87274e-06)
(-0.00324772 0.00028351 3.62396e-06)
(-0.00329073 0.000235352 3.26712e-06)
(-0.00333172 0.00019359 2.91138e-06)
(-0.0033702 0.000158985 2.39219e-06)
(-0.00340507 0.000133875 1.77497e-06)
(-0.00343522 0.000120727 1.01024e-06)
(-0.00345865 0.000122654 2.06023e-08)
(-0.00347277 0.000142285 -8.1803e-07)
(-0.00347975 0.000176428 -2.02211e-07)
(-0.00347805 0.000228297 -1.29239e-06)
(-0.00346084 0.000306827 -1.06021e-06)
(-0.00343196 0.000390984 1.10724e-07)
(-0.00339407 0.000464783 2.96286e-06)
(-0.00335194 0.000503356 8.19958e-06)
(-0.00331142 0.000461265 1.65226e-05)
(-0.00328159 0.000288297 2.6931e-05)
(-0.00325954 -3.45717e-05 3.85906e-05)
(-0.00325 -0.000791619 6.30261e-05)
(-0.0032767 -0.00197678 7.77954e-05)
(-0.00327695 -0.0037301 9.08472e-05)
(-0.00319525 -0.00610999 8.86376e-05)
(-0.00299417 -0.00896576 7.0928e-05)
(-0.0023365 -0.0117081 -1.52954e-05)
(-0.00136439 -0.0127823 -1.24825e-05)
(-0.000276881 -0.00896083 -2.02872e-05)
(0.000186472 0.0160503 -3.37487e-05)
(0.000171649 0.0176579 2.23746e-05)
(-0.000413431 0.0123294 4.28479e-05)
(-0.00109542 0.00734374 4.69437e-05)
(-0.00166334 0.00419544 3.76435e-05)
(-0.00202704 0.00251718 2.18132e-05)
(-0.00226325 0.00165791 1.34131e-05)
(-0.00240149 0.00120306 7.04706e-06)
(-0.00248768 0.000961749 7.18486e-06)
(-0.00255957 0.000789413 4.93865e-06)
(-0.00261026 0.000669931 4.83849e-06)
(-0.00265317 0.00057641 4.34171e-06)
(-0.00268901 0.00049827 3.68302e-06)
(-0.00272337 0.000430778 4.36856e-06)
(-0.00275734 0.000370054 3.67817e-06)
(-0.00278935 0.000315445 3.45541e-06)
(-0.00282123 0.000266839 3.09001e-06)
(-0.00285317 0.000224846 2.83145e-06)
(-0.00288461 0.000189053 2.37514e-06)
(-0.00291415 0.000161979 1.87446e-06)
(-0.00294085 0.000145562 1.24106e-06)
(-0.00296254 0.000142518 4.29399e-07)
(-0.00297714 0.000155026 -3.68521e-07)
(-0.00298271 0.000181087 -4.45863e-07)
(-0.0029812 0.000222138 -2.53944e-07)
(-0.00296646 0.000286312 -5.70158e-07)
(-0.00293671 0.000355441 5.60596e-07)
(-0.00289573 0.000414284 3.02525e-06)
(-0.00284823 0.000437975 7.9172e-06)
(-0.00279626 0.000382027 1.48987e-05)
(-0.00276048 0.000198566 2.68698e-05)
(-0.00272963 -0.00014882 3.56532e-05)
(-0.00271032 -0.00091653 5.95261e-05)
(-0.00274515 -0.00212603 7.38689e-05)
(-0.00276982 -0.00393277 8.24969e-05)
(-0.00275563 -0.00642291 9.07849e-05)
(-0.00260344 -0.00948942 8.11842e-05)
(-0.00209936 -0.012483 1.2747e-05)
(-0.00127272 -0.0137562 -2.37481e-06)
(-0.000268687 -0.00976034 -1.74766e-05)
(0.000177488 0.0158755 -2.50839e-05)
(0.000221038 0.0179028 2.31718e-05)
(-0.000272576 0.0128458 3.863e-05)
(-0.000890772 0.00786165 4.18468e-05)
(-0.00142559 0.0045818 3.0629e-05)
(-0.00178998 0.00275572 2.02792e-05)
(-0.00200444 0.001808 1.60005e-05)
(-0.00214117 0.00130082 1.05408e-05)
(-0.00221361 0.00101108 5.31652e-06)
(-0.00225633 0.000827442 5.23997e-06)
(-0.00228657 0.000697016 4.49988e-06)
(-0.00230741 0.000596359 3.98191e-06)
(-0.0023236 0.000516174 3.80163e-06)
(-0.00233833 0.000448859 3.59871e-06)
(-0.00235372 0.000388012 3.21608e-06)
(-0.00237001 0.000334174 3.04518e-06)
(-0.00238758 0.000286987 2.6486e-06)
(-0.00240743 0.000246054 2.79161e-06)
(-0.00242881 0.000210969 2.2593e-06)
(-0.00244962 0.000183565 1.87307e-06)
(-0.00246946 0.000165472 1.36622e-06)
(-0.0024863 0.000158884 8.12788e-07)
(-0.00249757 0.000165435 -6.13205e-08)
(-0.00250079 0.000182762 7.84905e-08)
(-0.00249792 0.000215875 1.10404e-07)
(-0.0024829 0.000264955 -7.1233e-08)
(-0.00245283 0.000317953 1.01865e-06)
(-0.00241004 0.000360375 3.19713e-06)
(-0.00235987 0.000367366 7.85962e-06)
(-0.00229843 0.000297985 1.30867e-05)
(-0.00226138 0.000103092 2.91365e-05)
(-0.00222381 -0.000265007 3.12273e-05)
(-0.00219326 -0.00103705 5.59976e-05)
(-0.002227 -0.00225727 7.15125e-05)
(-0.00227286 -0.00409797 8.57633e-05)
(-0.00229249 -0.00668219 8.73944e-05)
(-0.00222012 -0.00990598 7.37193e-05)
(-0.00185203 -0.0131452 2.38696e-05)
(-0.00116584 -0.0146335 3.67109e-06)
(-0.000256874 -0.0105091 -1.58013e-05)
(0.000169153 0.0156698 -2.19679e-05)
(0.000258551 0.0180736 2.20405e-05)
(-0.000155068 0.0132969 3.51744e-05)
(-0.000713043 0.00834258 3.92857e-05)
(-0.00121517 0.00496091 3.09508e-05)
(-0.00156855 0.00300625 2.32002e-05)
(-0.0017874 0.0019474 1.51286e-05)
(-0.00191111 0.00137419 9.90221e-06)
(-0.00197131 0.00104924 6.70102e-06)
(-0.00199751 0.000843159 5.256e-06)
(-0.00200615 0.000702037 4.3207e-06)
(-0.00200525 0.000597041 3.71908e-06)
(-0.00200175 0.000514002 3.74231e-06)
(-0.00199654 0.000446439 2.53929e-06)
(-0.00199192 0.000388561 2.76431e-06)
(-0.00199131 0.000337161 2.57603e-06)
(-0.0019937 0.000293339 2.45369e-06)
(-0.00199909 0.00025581 2.23929e-06)
(-0.00200731 0.00022236 1.95859e-06)
(-0.00201711 0.000195932 1.69711e-06)
(-0.00202736 0.000177611 1.32538e-06)
(-0.00203631 0.000168783 9.6672e-07)
(-0.002041 0.00017049 3.59699e-07)
(-0.00204046 0.000181994 4.45098e-07)
(-0.00203382 0.000205934 2.7427e-07)
(-0.00201595 0.000241493 3.91511e-07)
(-0.00198484 0.000278697 1.40531e-06)
(-0.00194074 0.000304323 3.39498e-06)
(-0.00188901 0.00029347 7.76979e-06)
(-0.00182482 0.000210368 1.19443e-05)
(-0.00178371 1.088e-05 2.5967e-05)
(-0.00173818 -0.000384102 3.02984e-05)
(-0.00170956 -0.00115156 5.07548e-05)
(-0.00174281 -0.00237288 6.63842e-05)
(-0.00180652 -0.00423424 8.10252e-05)
(-0.001864 -0.00687377 8.70656e-05)
(-0.00186061 -0.0102268 8.068e-05)
(-0.001615 -0.0136914 3.39805e-05)
(-0.00105753 -0.0154081 9.27108e-06)
(-0.000243446 -0.0112003 -1.38498e-05)
(0.000160222 0.0154478 -1.72632e-05)
(0.000284343 0.0181849 2.13968e-05)
(-5.96418e-05 0.0136869 3.19268e-05)
(-0.000562966 0.0087815 3.60464e-05)
(-0.00103462 0.00531349 2.89552e-05)
(-0.00137474 0.00323883 2.17023e-05)
(-0.00158595 0.00208558 1.57951e-05)
(-0.0017058 0.00144159 1.00964e-05)
(-0.00175615 0.00107079 6.89709e-06)
(-0.00176826 0.000840918 5.1063e-06)
(-0.00175905 0.000687117 3.99184e-06)
(-0.00173908 0.000576779 3.26844e-06)
(-0.00171563 0.000492838 2.91834e-06)
(-0.00169187 0.000427232 2.42319e-06)
(-0.00166993 0.000372125 2.29948e-06)
(-0.00165217 0.000325294 2.12734e-06)
(-0.00163917 0.000285052 2.1363e-06)
(-0.00162957 0.000250802 1.57908e-06)
(-0.00162332 0.000221264 1.62367e-06)
(-0.00162068 0.000197259 1.41837e-06)
(-0.00161951 0.000179806 1.18085e-06)
(-0.00161827 0.000169823 8.74998e-07)
(-0.0016147 0.000168338 6.48656e-07)
(-0.00160736 0.000175059 5.48849e-07)
(-0.0015945 0.000191064 5.054e-07)
(-0.00157214 0.000214407 7.37788e-07)
(-0.00153832 0.000237052 1.67299e-06)
(-0.00149269 0.000246698 3.53624e-06)
(-0.00143857 0.000219399 7.26387e-06)
(-0.00137732 0.000124321 1.20558e-05)
(-0.00132652 -8.27934e-05 1.92724e-05)
(-0.00127521 -0.000497799 3.0836e-05)
(-0.00125621 -0.0012517 4.58212e-05)
(-0.00129008 -0.00246351 6.05196e-05)
(-0.00137352 -0.00432712 7.35078e-05)
(-0.00145761 -0.0069986 7.45058e-05)
(-0.00153678 -0.0104566 7.84087e-05)
(-0.0013797 -0.0141411 4.97227e-05)
(-0.000948452 -0.0160832 1.33017e-05)
(-0.000228341 -0.0118333 -1.22993e-05)
(0.000152716 0.015213 -1.41556e-05)
(0.000306399 0.0182468 2.02081e-05)
(2.40404e-05 0.0140231 3.00635e-05)
(-0.000429927 0.00918583 3.40539e-05)
(-0.000873569 0.00565117 2.82392e-05)
(-0.00120345 0.00346636 2.21101e-05)
(-0.00141126 0.00221323 1.40382e-05)
(-0.00151706 0.00150162 9.07804e-06)
(-0.00155915 0.0010825 6.84862e-06)
(-0.00155891 0.000824665 5.03175e-06)
(-0.00153496 0.000656099 3.75554e-06)
(-0.0014989 0.00053969 2.90737e-06)
(-0.00145877 0.000454954 2.39269e-06)
(-0.00141869 0.000390928 1.94185e-06)
(-0.00138119 0.000339832 1.74998e-06)
(-0.00134817 0.000297826 1.57569e-06)
(-0.0013202 0.0002625 1.49531e-06)
(-0.00129665 0.000232985 1.30205e-06)
(-0.0012772 0.000207359 1.23884e-06)
(-0.00126159 0.000186517 1.10364e-06)
(-0.00124828 0.000170809 9.58615e-07)
(-0.00123589 0.000160906 7.90882e-07)
(-0.0012225 0.000157371 6.3517e-07)
(-0.00120639 0.000160198 5.74614e-07)
(-0.00118559 0.000169328 6.04106e-07)
(-0.0011571 0.000182349 8.98993e-07)
(-0.00111888 0.000192265 1.73385e-06)
(-0.00107068 0.000187584 3.4546e-06)
(-0.0010131 0.000146258 6.35343e-06)
(-0.000953547 3.97047e-05 1.17978e-05)
(-0.000896403 -0.000175872 1.63506e-05)
(-0.000843573 -0.000599391 2.77456e-05)
(-0.000829215 -0.0013388 4.06007e-05)
(-0.000869648 -0.00253332 5.55762e-05)
(-0.000964316 -0.00438158 6.98457e-05)
(-0.00111497 -0.00706408 7.47836e-05)
(-0.00119228 -0.0106249 6.99102e-05)
(-0.0011596 -0.014481 4.89412e-05)
(-0.000837072 -0.0166499 1.33798e-05)
(-0.000212942 -0.0124016 -1.20526e-05)
(0.000147891 0.0149665 -1.21114e-05)
(0.000332427 0.0182633 1.80251e-05)
(0.000103858 0.0143113 2.93517e-05)
(-0.000303416 0.00955579 3.32236e-05)
(-0.000719197 0.00597128 2.83762e-05)
(-0.00103494 0.00368762 2.07781e-05)
(-0.00123573 0.00233638 1.48291e-05)
(-0.00133545 0.00155006 1.23523e-05)
(-0.00137045 0.00108256 7.88188e-06)
(-0.00135914 0.000795155 5.45329e-06)
(-0.00132311 0.000611091 3.74702e-06)
(-0.00127419 0.00048829 2.66962e-06)
(-0.00122087 0.000402907 1.99232e-06)
(-0.00116787 0.000341286 1.53027e-06)
(-0.00111788 0.000294536 1.27324e-06)
(-0.00107248 0.000257679 1.09494e-06)
(-0.00103221 0.000227578 9.97402e-07)
(-0.00099666 0.000202646 8.71669e-07)
(-0.000965431 0.000181435 8.23784e-07)
(-0.000938046 0.000164023 7.44244e-07)
(-0.000913251 0.000150488 6.63775e-07)
(-0.000889783 0.000141213 5.75857e-07)
(-0.000866006 0.000136503 5.05581e-07)
(-0.000840242 0.000136193 5.01332e-07)
(-0.000810604 0.000139544 6.0278e-07)
(-0.000774728 0.000143826 9.47205e-07)
(-0.000730683 0.000142648 1.73419e-06)
(-0.000678536 0.000124848 3.43365e-06)
(-0.000617493 7.07609e-05 5.83601e-06)
(-0.000557205 -4.49534e-05 1.10093e-05)
(-0.000495426 -0.000272787 1.57056e-05)
(-0.000446237 -0.000692782 2.51535e-05)
(-0.000435958 -0.00140724 3.39384e-05)
(-0.00048 -0.00257092 4.65418e-05)
(-0.000597793 -0.00438989 6.08539e-05)
(-0.000764294 -0.00707687 6.79287e-05)
(-0.000943233 -0.0106867 5.95985e-05)
(-0.000962596 -0.0147151 4.76846e-05)
(-0.000734985 -0.0171307 2.32267e-05)
(-0.000200555 -0.0129144 -1.01599e-05)
(0.000145334 0.0147093 -1.03725e-05)
(0.000355059 0.0182424 1.71443e-05)
(0.000188244 0.0145482 3.00543e-05)
(-0.000173897 0.0098868 3.44546e-05)
(-0.000558665 0.006267 3.12411e-05)
(-0.000859079 0.00389435 2.4835e-05)
(-0.00105165 0.00244928 1.9062e-05)
(-0.00114843 0.00158747 1.34173e-05)
(-0.00117549 0.00107152 8.94441e-06)
(-0.00115655 0.000754553 5.98583e-06)
(-0.00111172 0.000555084 3.93664e-06)
(-0.00105374 0.000426107 2.60327e-06)
(-0.000991277 0.000340366 1.75576e-06)
(-0.000929323 0.000281517 1.21273e-06)
(-0.000870584 0.000239328 8.93544e-07)
(-0.000816419 0.000207676 6.95534e-07)
(-0.000767231 0.000182788 5.85456e-07)
(-0.000722687 0.000162562 5.01411e-07)
(-0.000682282 0.000145526 4.60058e-07)
(-0.000645362 0.000131377 4.1619e-07)
(-0.000610849 0.000119978 3.75791e-07)
(-0.000577594 0.000111483 3.37706e-07)
(-0.000544188 0.000105937 3.16824e-07)
(-0.000509124 0.00010299 3.49326e-07)
(-0.000470781 0.000101527 4.82639e-07)
(-0.000427353 9.86177e-05 8.05849e-07)
(-0.000377478 8.83704e-05 1.47473e-06)
(-0.000321247 6.02725e-05 2.78031e-06)
(-0.000259652 -2.38715e-06 4.68989e-06)
(-0.000197954 -0.000126679 7.36669e-06)
(-0.000138781 -0.000357295 1.22824e-05)
(-9.68252e-05 -0.000768297 2.00265e-05)
(-9.40653e-05 -0.00146015 3.21261e-05)
(-0.000145703 -0.00258923 4.40216e-05)
(-0.000263003 -0.00436736 5.36278e-05)
(-0.000452482 -0.00702655 6.06892e-05)
(-0.000659389 -0.0106804 5.44827e-05)
(-0.000759218 -0.014877 4.07755e-05)
(-0.000633951 -0.017522 2.03298e-05)
(-0.000182976 -0.0133683 -1.07423e-05)
(0.000145253 0.0144347 -7.61589e-06)
(0.000397715 0.0181666 1.79565e-05)
(0.000283697 0.0147341 2.99408e-05)
(-3.17441e-05 0.0101759 3.66056e-05)
(-0.00038592 0.00653274 3.47533e-05)
(-0.000670101 0.00407914 2.84972e-05)
(-0.000853136 0.00254707 2.17473e-05)
(-0.000944356 0.00161614 1.55654e-05)
(-0.000965856 0.00105157 1.05125e-05)
(-0.000941263 0.000705527 6.91712e-06)
(-0.00089055 0.000491163 4.40829e-06)
(-0.000826961 0.000356615 2.75123e-06)
(-0.000759215 0.000271064 1.70357e-06)
(-0.000692354 0.000215448 1.04772e-06)
(-0.000628905 0.000177985 6.57571e-07)
(-0.000569972 0.000151473 4.25144e-07)
(-0.000515749 0.000131549 2.98504e-07)
(-0.000465826 0.000115682 2.22996e-07)
(-0.000419556 0.000102344 1.84924e-07)
(-0.000376155 9.09698e-05 1.6047e-07)
(-0.000334608 8.12785e-05 1.41599e-07)
(-0.000293863 7.32584e-05 1.34482e-07)
(-0.000252669 6.67763e-05 1.47776e-07)
(-0.000209727 6.13452e-05 2.13613e-07)
(-0.000163691 5.56271e-05 3.87605e-07)
(-0.000113116 4.68016e-05 6.88766e-07)
(-5.72395e-05 2.94031e-05 1.26142e-06)
(4.22733e-06 -6.25593e-06 2.31549e-06)
(6.92724e-05 -7.52248e-05 4.2329e-06)
(0.000135165 -0.000203529 6.95405e-06)
(0.000195298 -0.000433619 1.13082e-05)
(0.00023613 -0.000832548 1.77818e-05)
(0.00023754 -0.00150115 2.65504e-05)
(0.000178854 -0.00259044 3.63955e-05)
(4.21536e-05 -0.00431538 4.61481e-05)
(-0.000174717 -0.00693751 5.3383e-05)
(-0.000422994 -0.0106082 5.22751e-05)
(-0.000613537 -0.0149225 3.93144e-05)
(-0.000551664 -0.0178163 1.58166e-05)
(-0.00017147 -0.0137649 -1.12142e-05)
(0.000151121 0.0141334 -7.97532e-06)
(0.000443254 0.0180427 1.99043e-05)
(0.000389555 0.0148648 3.38484e-05)
(0.000125079 0.0104183 4.09169e-05)
(-0.000194817 0.00676539 3.99017e-05)
(-0.000460109 0.00424194 3.35368e-05)
(-0.000632676 0.00263038 2.5927e-05)
(-0.000717396 0.00163323 1.8645e-05)
(-0.000733672 0.00102237 1.26378e-05)
(-0.000704676 0.000648961 8.27039e-06)
(-0.000650401 0.000421343 5.1963e-06)
(-0.000584202 0.000282647 3.12816e-06)