/*--------------------------------*- C++ -*----------------------------------*\
  =========                 |
  \\      /  F ield         | OpenFOAM: The Open Source CFD Toolbox
   \\    /   O peration     | Website:  https://openfoam.org
    \\  /    A nd           | Version:  12
     \\/     M anipulation  |
\*---------------------------------------------------------------------------*/
FoamFile
{
    format      ascii;
    class       volScalarField;
    location    "450";
    object      alphat;
}
// * * * * * * * * * * * * * * * * * * * * * * * * * * * * * * * * * * * * * //

dimensions      [1 -1 -1 0 0 0 0];

internalField   nonuniform List<scalar> 
8000
(
1.99511e-19
2.03466e-19
2.05531e-19
2.06506e-19
2.06983e-19
2.07263e-19
2.07465e-19
2.07633e-19
2.07782e-19
2.0792e-19
2.0805e-19
2.08172e-19
2.08288e-19
2.08399e-19
2.08505e-19
2.08607e-19
2.08706e-19
2.08801e-19
2.08894e-19
2.08984e-19
2.09072e-19
2.09158e-19
2.09242e-19
2.09326e-19
2.09409e-19
2.09491e-19
2.09574e-19
2.09657e-19
2.09742e-19
2.0983e-19
2.09921e-19
2.10017e-19
2.1012e-19
2.10231e-19
2.10353e-19
2.10488e-19
2.10637e-19
2.10804e-19
2.10988e-19
2.11203e-19
1.9935e-19
2.03462e-19
2.05565e-19
2.06539e-19
2.06998e-19
2.07264e-19
2.07457e-19
2.07619e-19
2.07765e-19
2.079e-19
2.08026e-19
2.08146e-19
2.0826e-19
2.08369e-19
2.08474e-19
2.08575e-19
2.08673e-19
2.08767e-19
2.08859e-19
2.08948e-19
2.09035e-19
2.0912e-19
2.09203e-19
2.09285e-19
2.09366e-19
2.09446e-19
2.09525e-19
2.09604e-19
2.09684e-19
2.09766e-19
2.0985e-19
2.09938e-19
2.10033e-19
2.10138e-19
2.10257e-19
2.10393e-19
2.10552e-19
2.10736e-19
2.10944e-19
2.11198e-19
1.99295e-19
2.03332e-19
2.05461e-19
2.06469e-19
2.06937e-19
2.072e-19
2.07387e-19
2.07543e-19
2.07684e-19
2.07814e-19
2.07937e-19
2.08054e-19
2.08165e-19
2.08272e-19
2.08375e-19
2.08475e-19
2.08571e-19
2.08665e-19
2.08755e-19
2.08843e-19
2.08929e-19
2.09012e-19
2.09093e-19
2.09172e-19
2.09249e-19
2.09323e-19
2.09395e-19
2.09465e-19
2.09533e-19
2.09602e-19
2.09671e-19
2.09745e-19
2.09826e-19
2.09921e-19
2.10038e-19
2.10182e-19
2.10365e-19
2.10589e-19
2.10851e-19
2.11174e-19
1.99213e-19
2.03105e-19
2.05243e-19
2.06294e-19
2.06787e-19
2.07053e-19
2.07237e-19
2.07387e-19
2.07522e-19
2.07648e-19
2.07767e-19
2.0788e-19
2.07989e-19
2.08094e-19
2.08196e-19
2.08294e-19
2.08389e-19
2.08482e-19
2.08572e-19
2.08659e-19
2.08744e-19
2.08825e-19
2.08904e-19
2.08979e-19
2.0905e-19
2.09117e-19
2.09179e-19
2.09237e-19
2.09291e-19
2.09343e-19
2.09395e-19
2.09452e-19
2.09519e-19
2.09606e-19
2.09725e-19
2.09887e-19
2.10108e-19
2.10389e-19
2.10726e-19
2.11142e-19
1.99124e-19
2.02845e-19
2.04965e-19
2.0605e-19
2.06566e-19
2.06838e-19
2.07018e-19
2.07161e-19
2.0729e-19
2.07409e-19
2.07523e-19
2.07633e-19
2.07739e-19
2.07841e-19
2.07941e-19
2.08039e-19
2.08133e-19
2.08226e-19
2.08315e-19
2.08402e-19
2.08486e-19
2.08566e-19
2.08642e-19
2.08714e-19
2.08779e-19
2.08839e-19
2.08892e-19
2.08939e-19
2.08979e-19
2.09016e-19
2.09053e-19
2.09095e-19
2.09152e-19
2.09237e-19
2.09366e-19
2.09554e-19
2.09819e-19
2.10167e-19
2.10587e-19
2.11106e-19
1.99033e-19
2.0257e-19
2.04654e-19
2.05762e-19
2.06298e-19
2.06575e-19
2.06749e-19
2.06885e-19
2.07005e-19
2.07117e-19
2.07224e-19
2.07329e-19
2.07431e-19
2.07531e-19
2.07629e-19
2.07724e-19
2.07818e-19
2.0791e-19
2.07999e-19
2.08085e-19
2.08169e-19
2.08248e-19
2.08323e-19
2.08392e-19
2.08454e-19
2.08509e-19
2.08555e-19
2.08593e-19
2.08623e-19
2.08649e-19
2.08675e-19
2.08709e-19
2.08762e-19
2.0885e-19
2.08994e-19
2.09213e-19
2.09527e-19
2.09943e-19
2.10446e-19
2.11069e-19
1.98946e-19
2.02295e-19
2.0433e-19
2.05449e-19
2.06001e-19
2.06282e-19
2.06451e-19
2.06578e-19
2.06688e-19
2.06791e-19
2.06891e-19
2.06989e-19
2.07086e-19
2.07182e-19
2.07277e-19
2.0737e-19
2.07462e-19
2.07553e-19
2.07641e-19
2.07728e-19
2.07811e-19
2.0789e-19
2.07964e-19
2.08032e-19
2.08093e-19
2.08145e-19
2.08187e-19
2.0822e-19
2.08245e-19
2.08265e-19
2.08287e-19
2.08318e-19
2.08372e-19
2.08468e-19
2.08631e-19
2.08882e-19
2.09243e-19
2.09724e-19
2.10308e-19
2.11033e-19
1.98863e-19
2.02029e-19
2.04004e-19
2.05125e-19
2.0569e-19
2.05976e-19
2.06141e-19
2.06259e-19
2.06359e-19
2.06452e-19
2.06543e-19
2.06634e-19
2.06725e-19
2.06815e-19
2.06905e-19
2.06995e-19
2.07085e-19
2.07173e-19
2.07261e-19
2.07346e-19
2.07429e-19
2.07508e-19
2.07582e-19
2.0765e-19
2.07711e-19
2.07762e-19
2.07804e-19
2.07836e-19
2.0786e-19
2.07879e-19
2.07901e-19
2.07935e-19
2.07993e-19
2.081e-19
2.08282e-19
2.08565e-19
2.08972e-19
2.09513e-19
2.10174e-19
2.10998e-19
1.98785e-19
2.01774e-19
2.03684e-19
2.04799e-19
2.05376e-19
2.05668e-19
2.05831e-19
2.05942e-19
2.06032e-19
2.06116e-19
2.06198e-19
2.0628e-19
2.06363e-19
2.06447e-19
2.06532e-19
2.06617e-19
2.06703e-19
2.06788e-19
2.06873e-19
2.06957e-19
2.07039e-19
2.07117e-19
2.07192e-19
2.0726e-19
2.07321e-19
2.07374e-19
2.07418e-19
2.07452e-19
2.07478e-19
2.075e-19
2.07525e-19
2.07564e-19
2.0763e-19
2.0775e-19
2.07951e-19
2.08263e-19
2.08712e-19
2.09311e-19
2.10046e-19
2.10964e-19
1.98713e-19
2.01535e-19
2.03377e-19
2.04482e-19
2.05068e-19
2.05367e-19
2.05531e-19
2.05637e-19
2.0572e-19
2.05795e-19
2.05868e-19
2.05941e-19
2.06017e-19
2.06093e-19
2.06171e-19
2.06251e-19
2.06331e-19
2.06412e-19
2.06494e-19
2.06575e-19
2.06654e-19
2.06732e-19
2.06805e-19
2.06874e-19
2.06936e-19
2.06991e-19
2.07038e-19
2.07075e-19
2.07106e-19
2.07133e-19
2.07164e-19
2.07211e-19
2.07286e-19
2.07419e-19
2.07639e-19
2.07978e-19
2.08466e-19
2.09118e-19
2.09923e-19
2.10931e-19
1.98648e-19
2.01311e-19
2.03085e-19
2.04177e-19
2.04771e-19
2.05079e-19
2.05247e-19
2.05351e-19
2.05429e-19
2.05497e-19
2.05562e-19
2.05627e-19
2.05695e-19
2.05764e-19
2.05835e-19
2.05907e-19
2.05982e-19
2.06057e-19
2.06134e-19
2.0621e-19
2.06287e-19
2.06361e-19
2.06434e-19
2.06502e-19
2.06565e-19
2.06622e-19
2.06671e-19
2.06713e-19
2.06749e-19
2.06782e-19
2.06821e-19
2.06876e-19
2.06962e-19
2.07108e-19
2.07345e-19
2.07708e-19
2.08232e-19
2.08934e-19
2.09805e-19
2.10899e-19
1.98587e-19
2.01103e-19
2.02811e-19
2.03889e-19
2.0449e-19
2.04809e-19
2.04983e-19
2.05089e-19
2.05164e-19
2.05227e-19
2.05286e-19
2.05345e-19
2.05404e-19
2.05466e-19
2.05529e-19
2.05595e-19
2.05662e-19
2.05731e-19
2.05802e-19
2.05873e-19
2.05944e-19
2.06015e-19
2.06085e-19
2.06151e-19
2.06214e-19
2.06272e-19
2.06324e-19
2.0637e-19
2.06411e-19
2.06451e-19
2.06498e-19
2.06561e-19
2.06658e-19
2.06817e-19
2.0707e-19
2.07455e-19
2.08011e-19
2.08759e-19
2.09692e-19
2.10869e-19
1.98532e-19
2.00912e-19
2.02555e-19
2.03618e-19
2.04228e-19
2.04559e-19
2.04742e-19
2.04852e-19
2.04928e-19
2.04989e-19
2.05043e-19
2.05096e-19
2.05149e-19
2.05203e-19
2.05259e-19
2.05317e-19
2.05377e-19
2.05439e-19
2.05503e-19
2.05568e-19
2.05634e-19
2.057e-19
2.05765e-19
2.05829e-19
2.0589e-19
2.05947e-19
2.06001e-19
2.0605e-19
2.06096e-19
2.06142e-19
2.06196e-19
2.06268e-19
2.06376e-19
2.06546e-19
2.06814e-19
2.07219e-19
2.07802e-19
2.08593e-19
2.09584e-19
2.1084e-19
1.98482e-19
2.00736e-19
2.02319e-19
2.03367e-19
2.03984e-19
2.0433e-19
2.04524e-19
2.04642e-19
2.0472e-19
2.04781e-19
2.04833e-19
2.04881e-19
2.04929e-19
2.04977e-19
2.05026e-19
2.05077e-19
2.0513e-19
2.05185e-19
2.05242e-19
2.053e-19
2.05359e-19
2.05419e-19
2.05479e-19
2.05539e-19
2.05597e-19
2.05653e-19
2.05706e-19
2.05757e-19
2.05806e-19
2.05858e-19
2.05919e-19
2.05999e-19
2.06115e-19
2.06296e-19
2.06576e-19
2.06997e-19
2.07606e-19
2.08435e-19
2.0948e-19
2.10812e-19
1.98437e-19
2.00575e-19
2.021e-19
2.03133e-19
2.03759e-19
2.0412e-19
2.04328e-19
2.04455e-19
2.04539e-19
2.04601e-19
2.04652e-19
2.04698e-19
2.04742e-19
2.04785e-19
2.04828e-19
2.04873e-19
2.04919e-19
2.04967e-19
2.05017e-19
2.05068e-19
2.05121e-19
2.05174e-19
2.05229e-19
2.05283e-19
2.05337e-19
2.0539e-19
2.05442e-19
2.05493e-19
2.05545e-19
2.056e-19
2.05666e-19
2.05753e-19
2.05877e-19
2.06066e-19
2.06356e-19
2.06791e-19
2.0742e-19
2.08283e-19
2.0938e-19
2.10784e-19
1.98396e-19
2.00427e-19
2.01898e-19
2.02916e-19
2.03551e-19
2.03928e-19
2.04151e-19
2.04289e-19
2.0438e-19
2.04446e-19
2.04498e-19
2.04543e-19
2.04584e-19
2.04623e-19
2.04662e-19
2.04702e-19
2.04742e-19
2.04784e-19
2.04827e-19
2.04872e-19
2.04918e-19
2.04965e-19
2.05013e-19
2.05062e-19
2.05111e-19
2.05161e-19
2.0521e-19
2.0526e-19
2.05312e-19
2.0537e-19
2.0544e-19
2.05531e-19
2.05661e-19
2.05857e-19
2.06153e-19
2.06597e-19
2.07244e-19
2.08137e-19
2.09282e-19
2.10757e-19
1.98358e-19
2.00292e-19
2.01711e-19
2.02715e-19
2.03358e-19
2.03751e-19
2.0399e-19
2.0414e-19
2.04239e-19
2.0431e-19
2.04365e-19
2.0441e-19
2.0445e-19
2.04487e-19
2.04522e-19
2.04558e-19
2.04594e-19
2.04631e-19
2.04668e-19
2.04707e-19
2.04747e-19
2.04788e-19
2.04831e-19
2.04874e-19
2.04919e-19
2.04964e-19
2.0501e-19
2.05058e-19
2.05109e-19
2.05168e-19
2.05239e-19
2.05333e-19
2.05467e-19
2.05665e-19
2.05965e-19
2.06415e-19
2.07075e-19
2.07994e-19
2.09184e-19
2.1073e-19
1.98324e-19
2.00167e-19
2.01539e-19
2.02528e-19
2.03178e-19
2.03585e-19
2.0384e-19
2.04002e-19
2.04111e-19
2.04187e-19
2.04245e-19
2.04292e-19
2.04332e-19
2.04368e-19
2.04402e-19
2.04435e-19
2.04468e-19
2.04501e-19
2.04534e-19
2.04568e-19
2.04604e-19
2.0464e-19
2.04677e-19
2.04716e-19
2.04755e-19
2.04796e-19
2.04839e-19
2.04884e-19
2.04934e-19
2.04991e-19
2.05063e-19
2.05158e-19
2.05292e-19
2.05491e-19
2.05791e-19
2.06243e-19
2.0691e-19
2.07853e-19
2.09086e-19
2.10703e-19
1.98292e-19
2.00052e-19
2.01377e-19
2.02352e-19
2.03007e-19
2.03428e-19
2.03697e-19
2.03871e-19
2.03988e-19
2.04071e-19
2.04133e-19
2.04182e-19
2.04223e-19
2.04259e-19
2.04293e-19
2.04325e-19
2.04356e-19
2.04387e-19
2.04418e-19
2.04449e-19
2.04481e-19
2.04514e-19
2.04547e-19
2.04581e-19
2.04617e-19
2.04654e-19
2.04693e-19
2.04735e-19
2.04783e-19
2.04839e-19
2.04909e-19
2.05002e-19
2.05135e-19
2.05331e-19
2.05628e-19
2.06078e-19
2.0675e-19
2.07712e-19
2.08988e-19
2.10675e-19
1.98262e-19
1.99945e-19
2.01225e-19
2.02184e-19
2.02843e-19
2.03275e-19
2.03556e-19
2.03741e-19
2.03866e-19
2.03954e-19
2.0402e-19
2.04072e-19
2.04115e-19
2.04153e-19
2.04188e-19
2.0422e-19
2.04251e-19
2.04282e-19
2.04312e-19
2.04342e-19
2.04372e-19
2.04402e-19
2.04433e-19
2.04465e-19
2.04497e-19
2.04531e-19
2.04567e-19
2.04607e-19
2.04652e-19
2.04705e-19
2.04773e-19
2.04864e-19
2.04992e-19
2.05183e-19
2.05472e-19
2.05917e-19
2.0659e-19
2.07569e-19
2.08887e-19
2.10647e-19
1.98234e-19
1.99843e-19
2.01081e-19
2.02022e-19
2.02681e-19
2.03122e-19
2.03413e-19
2.03606e-19
2.03738e-19
2.03831e-19
2.039e-19
2.03955e-19
2.04001e-19
2.04041e-19
2.04078e-19
2.04112e-19
2.04145e-19
2.04177e-19
2.04208e-19
2.04238e-19
2.04268e-19
2.04298e-19
2.04328e-19
2.04358e-19
2.04389e-19
2.04422e-19
2.04456e-19
2.04493e-19
2.04535e-19
2.04586e-19
2.0465e-19
2.04737e-19
2.0486e-19
2.05042e-19
2.05322e-19
2.05757e-19
2.06429e-19
2.07422e-19
2.08781e-19
2.10617e-19
1.98208e-19
1.99746e-19
2.00941e-19
2.01863e-19
2.0252e-19
2.02966e-19
2.03264e-19
2.03463e-19
2.03599e-19
2.03695e-19
2.03768e-19
2.03825e-19
2.03874e-19
2.03917e-19
2.03956e-19
2.03994e-19
2.04029e-19
2.04064e-19
2.04097e-19
2.0413e-19
2.04162e-19
2.04193e-19
2.04224e-19
2.04255e-19
2.04286e-19
2.04317e-19
2.04351e-19
2.04386e-19
2.04427e-19
2.04475e-19
2.04535e-19
2.04617e-19
2.04732e-19
2.04905e-19
2.05173e-19
2.05596e-19
2.06262e-19
2.07269e-19
2.08669e-19
2.10585e-19
1.98182e-19
1.99653e-19
2.00804e-19
2.01704e-19
2.02355e-19
2.02803e-19
2.03104e-19
2.03307e-19
2.03445e-19
2.03543e-19
2.03617e-19
2.03676e-19
2.03727e-19
2.03773e-19
2.03816e-19
2.03857e-19
2.03897e-19
2.03935e-19
2.03973e-19
2.04009e-19
2.04044e-19
2.04079e-19
2.04112e-19
2.04145e-19
2.04178e-19
2.0421e-19
2.04244e-19
2.0428e-19
2.04319e-19
2.04365e-19
2.04422e-19
2.04498e-19
2.04605e-19
2.04767e-19
2.0502e-19
2.05429e-19
2.06088e-19
2.07106e-19
2.0855e-19
2.10551e-19
1.98158e-19
1.99561e-19
2.00669e-19
2.01545e-19
2.02185e-19
2.02631e-19
2.02932e-19
2.03135e-19
2.03273e-19
2.0337e-19
2.03444e-19
2.03504e-19
2.03557e-19
2.03605e-19
2.03652e-19
2.03697e-19
2.03741e-19
2.03785e-19
2.03827e-19
2.03868e-19
2.03908e-19
2.03947e-19
2.03985e-19
2.04021e-19
2.04057e-19
2.04093e-19
2.04128e-19
2.04165e-19
2.04205e-19
2.04249e-19
2.04303e-19
2.04374e-19
2.04473e-19
2.04623e-19
2.04861e-19
2.05254e-19
2.05903e-19
2.06932e-19
2.08422e-19
2.10515e-19
1.98133e-19
1.99469e-19
2.00532e-19
2.0138e-19
2.02007e-19
2.02446e-19
2.02744e-19
2.02944e-19
2.03079e-19
2.03174e-19
2.03247e-19
2.03306e-19
2.03359e-19
2.0341e-19
2.03459e-19
2.03508e-19
2.03558e-19
2.03606e-19
2.03654e-19
2.03701e-19
2.03747e-19
2.03792e-19
2.03835e-19
2.03877e-19
2.03917e-19
2.03957e-19
2.03996e-19
2.04035e-19
2.04076e-19
2.04121e-19
2.04173e-19
2.04239e-19
2.0433e-19
2.04468e-19
2.04691e-19
2.05067e-19
2.05706e-19
2.06745e-19
2.08282e-19
2.10474e-19
1.98108e-19
1.99377e-19
2.00393e-19
2.0121e-19
2.01819e-19
2.02248e-19
2.0254e-19
2.02734e-19
2.02863e-19
2.02954e-19
2.03023e-19
2.0308e-19
2.03133e-19
2.03184e-19
2.03236e-19
2.03289e-19
2.03342e-19
2.03396e-19
2.0345e-19
2.03504e-19
2.03556e-19
2.03607e-19
2.03657e-19
2.03705e-19
2.03751e-19
2.03796e-19
2.0384e-19
2.03883e-19
2.03927e-19
2.03973e-19
2.04024e-19
2.04087e-19
2.04172e-19
2.04298e-19
2.04506e-19
2.04865e-19
2.05493e-19
2.06543e-19
2.0813e-19
2.1043e-19
1.98083e-19
1.99284e-19
2.00249e-19
2.01032e-19
2.01619e-19
2.02035e-19
2.02316e-19
2.02502e-19
2.02625e-19
2.02709e-19
2.02773e-19
2.02827e-19
2.02878e-19
2.02929e-19
2.02981e-19
2.03037e-19
2.03094e-19
2.03153e-19
2.03212e-19
2.03272e-19
2.03331e-19
2.03389e-19
2.03446e-19
2.035e-19
2.03554e-19
2.03605e-19
2.03655e-19
2.03703e-19
2.03751e-19
2.038e-19
2.03852e-19
2.03914e-19
2.03993e-19
2.04111e-19
2.04305e-19
2.04648e-19
2.05264e-19
2.06325e-19
2.07965e-19
2.10382e-19
1.98057e-19
1.99188e-19
2.001e-19
2.00845e-19
2.01406e-19
2.01805e-19
2.02075e-19
2.02251e-19
2.02364e-19
2.02441e-19
2.02499e-19
2.02548e-19
2.02595e-19
2.02644e-19
2.02697e-19
2.02753e-19
2.02813e-19
2.02876e-19
2.0294e-19
2.03005e-19
2.03071e-19
2.03135e-19
2.03199e-19
2.03261e-19
2.03321e-19
2.0338e-19
2.03436e-19
2.03491e-19
2.03545e-19
2.03598e-19
2.03653e-19
2.03715e-19
2.03792e-19
2.03902e-19
2.04084e-19
2.04413e-19
2.05018e-19
2.06088e-19
2.07784e-19
2.10329e-19
1.98031e-19
1.99089e-19
1.99945e-19
2.00647e-19
2.0118e-19
2.01559e-19
2.01814e-19
2.01979e-19
2.02082e-19
2.02151e-19
2.02201e-19
2.02244e-19
2.02287e-19
2.02333e-19
2.02384e-19
2.02441e-19
2.02502e-19
2.02567e-19
2.02636e-19
2.02705e-19
2.02776e-19
2.02847e-19
2.02917e-19
2.02986e-19
2.03054e-19
2.03119e-19
2.03183e-19
2.03245e-19
2.03305e-19
2.03365e-19
2.03425e-19
2.03489e-19
2.03565e-19
2.03672e-19
2.03844e-19
2.04159e-19
2.04754e-19
2.05834e-19
2.07588e-19
2.1027e-19
1.98004e-19
1.98986e-19
1.99783e-19
2.0044e-19
2.0094e-19
2.01297e-19
2.01535e-19
2.01687e-19
2.0178e-19
2.0184e-19
2.01883e-19
2.0192e-19
2.01957e-19
2.01999e-19
2.02048e-19
2.02103e-19
2.02165e-19
2.02232e-19
2.02302e-19
2.02376e-19
2.02451e-19
2.02527e-19
2.02603e-19
2.02678e-19
2.02752e-19
2.02825e-19
2.02896e-19
2.02965e-19
2.03033e-19
2.031e-19
2.03166e-19
2.03235e-19
2.03314e-19
2.03419e-19
2.03585e-19
2.03888e-19
2.04473e-19
2.05562e-19
2.07376e-19
2.10206e-19
1.97976e-19
1.98879e-19
1.99613e-19
2.00221e-19
2.00686e-19
2.01017e-19
2.01238e-19
2.01377e-19
2.01459e-19
2.01511e-19
2.01547e-19
2.01578e-19
2.0161e-19
2.01648e-19
2.01694e-19
2.01748e-19
2.01808e-19
2.01875e-19
2.01947e-19
2.02023e-19
2.02101e-19
2.02181e-19
2.02261e-19
2.02341e-19
2.02422e-19
2.02501e-19
2.02579e-19
2.02656e-19
2.02732e-19
2.02806e-19
2.0288e-19
2.02956e-19
2.0304e-19
2.03146e-19
2.03309e-19
2.03602e-19
2.04177e-19
2.05273e-19
2.07147e-19
2.10135e-19
1.97947e-19
1.98767e-19
1.99436e-19
1.99992e-19
2.00418e-19
2.00722e-19
2.00924e-19
2.01049e-19
2.01121e-19
2.01166e-19
2.01197e-19
2.01223e-19
2.01251e-19
2.01285e-19
2.01328e-19
2.0138e-19
2.01439e-19
2.01506e-19
2.01578e-19
2.01655e-19
2.01735e-19
2.01817e-19
2.01901e-19
2.01985e-19
2.0207e-19
2.02155e-19
2.02239e-19
2.02323e-19
2.02406e-19
2.02489e-19
2.02572e-19
2.02656e-19
2.02748e-19
2.02859e-19
2.0302e-19
2.03306e-19
2.03869e-19
2.0497e-19
2.06904e-19
2.10059e-19
1.97916e-19
1.98651e-19
1.99252e-19
1.99753e-19
2.00137e-19
2.00411e-19
2.00593e-19
2.00705e-19
2.00769e-19
2.00809e-19
2.00836e-19
2.00859e-19
2.00885e-19
2.00918e-19
2.00959e-19
2.0101e-19
2.01068e-19
2.01134e-19
2.01206e-19
2.01283e-19
2.01364e-19
2.01447e-19
2.01533e-19
2.0162e-19
2.01708e-19
2.01798e-19
2.01887e-19
2.01977e-19
2.02067e-19
2.02158e-19
2.0225e-19
2.02344e-19
2.02444e-19
2.02562e-19
2.02725e-19
2.03004e-19
2.03554e-19
2.04655e-19
2.06646e-19
2.09976e-19
1.97885e-19
1.98531e-19
1.9906e-19
1.99503e-19
1.99843e-19
2.00085e-19
2.00247e-19
2.00347e-19
2.00406e-19
2.00443e-19
2.0047e-19
2.00494e-19
2.00521e-19
2.00555e-19
2.00597e-19
2.00647e-19
2.00706e-19
2.00771e-19
2.00843e-19
2.0092e-19
2.01001e-19
2.01085e-19
2.01172e-19
2.0126e-19
2.01351e-19
2.01443e-19
2.01537e-19
2.01632e-19
2.01728e-19
2.01826e-19
2.01926e-19
2.02029e-19
2.02139e-19
2.02265e-19
2.02432e-19
2.02706e-19
2.03242e-19
2.04337e-19
2.06377e-19
2.09888e-19
1.97853e-19
1.98408e-19
1.98862e-19
1.99244e-19
1.99537e-19
1.99747e-19
1.9989e-19
1.99981e-19
2.00038e-19
2.00077e-19
2.00107e-19
2.00136e-19
2.00168e-19
2.00207e-19
2.00252e-19
2.00305e-19
2.00365e-19
2.00432e-19
2.00504e-19
2.00581e-19
2.00662e-19
2.00746e-19
2.00833e-19
2.00923e-19
2.01014e-19
2.01109e-19
2.01205e-19
2.01303e-19
2.01404e-19
2.01508e-19
2.01615e-19
2.01727e-19
2.01846e-19
2.0198e-19
2.02153e-19
2.02423e-19
2.02941e-19
2.04021e-19
2.06101e-19
2.09795e-19
1.9782e-19
1.98282e-19
1.9866e-19
1.98979e-19
1.99226e-19
1.99406e-19
1.99532e-19
1.99618e-19
1.99678e-19
1.99724e-19
1.99763e-19
1.99801e-19
1.99843e-19
1.99889e-19
1.99941e-19
1.99999e-19
2.00062e-19
2.00131e-19
2.00205e-19
2.00282e-19
2.00363e-19
2.00447e-19
2.00534e-19
2.00624e-19
2.00717e-19
2.00812e-19
2.0091e-19
2.01011e-19
2.01116e-19
2.01224e-19
2.01337e-19
2.01455e-19
2.01582e-19
2.01725e-19
2.01902e-19
2.02167e-19
2.02667e-19
2.0372e-19
2.05826e-19
2.09699e-19
1.97789e-19
1.98159e-19
1.98462e-19
1.98719e-19
1.98924e-19
1.99078e-19
1.99194e-19
1.9928e-19
1.99348e-19
1.99405e-19
1.99458e-19
1.9951e-19
1.99563e-19
1.9962e-19
1.99681e-19
1.99745e-19
1.99813e-19
1.99885e-19
1.99961e-19
2.0004e-19
2.00121e-19
2.00206e-19
2.00293e-19
2.00383e-19
2.00476e-19
2.00572e-19
2.00672e-19
2.00775e-19
2.00882e-19
2.00994e-19
2.01111e-19
2.01235e-19
2.01369e-19
2.01517e-19
2.01698e-19
2.01958e-19
2.02434e-19
2.03452e-19
2.05567e-19
2.09605e-19
1.9776e-19
1.98049e-19
1.98286e-19
1.98491e-19
1.9866e-19
1.98796e-19
1.98908e-19
1.99e-19
1.99079e-19
1.99151e-19
1.99218e-19
1.99285e-19
1.99351e-19
1.99419e-19
1.99488e-19
1.99559e-19
1.99632e-19
1.99708e-19
1.99786e-19
1.99866e-19
1.99949e-19
2.00034e-19
2.00122e-19
2.00213e-19
2.00306e-19
2.00403e-19
2.00504e-19
2.00609e-19
2.00719e-19
2.00834e-19
2.00955e-19
2.01083e-19
2.01222e-19
2.01377e-19
2.01561e-19
2.01817e-19
2.0227e-19
2.03243e-19
2.05341e-19
2.09518e-19
1.9774e-19
1.97969e-19
1.98158e-19
1.98327e-19
1.98474e-19
1.98601e-19
1.98713e-19
1.98812e-19
1.98903e-19
1.98987e-19
1.99067e-19
1.99145e-19
1.99221e-19
1.99297e-19
1.99373e-19
1.99449e-19
1.99527e-19
1.99605e-19
1.99685e-19
1.99767e-19
1.99851e-19
1.99938e-19
2.00027e-19
2.00118e-19
2.00213e-19
2.00312e-19
2.00414e-19
2.00521e-19
2.00633e-19
2.00751e-19
2.00875e-19
2.01008e-19
2.01152e-19
2.01312e-19
2.01502e-19
2.01762e-19
2.02206e-19
2.03146e-19
2.05214e-19
2.09461e-19
1.97736e-19
1.97931e-19
1.98099e-19
1.98252e-19
1.98391e-19
1.98516e-19
1.9863e-19
1.98734e-19
1.98831e-19
1.98922e-19
1.99008e-19
1.99091e-19
1.99172e-19
1.99252e-19
1.99331e-19
1.9941e-19
1.99489e-19
1.99569e-19
1.9965e-19
1.99733e-19
1.99818e-19
1.99906e-19
1.99995e-19
2.00088e-19
2.00184e-19
2.00284e-19
2.00387e-19
2.00496e-19
2.0061e-19
2.0073e-19
2.00857e-19
2.00993e-19
2.01141e-19
2.01307e-19
2.01506e-19
2.01779e-19
2.02241e-19
2.03183e-19
2.05212e-19
2.0929e-19
3.11569e-19
3.18358e-19
3.21482e-19
3.22848e-19
3.23505e-19
3.23906e-19
3.24207e-19
3.24463e-19
3.24693e-19
3.24907e-19
3.25108e-19
3.25297e-19
3.25478e-19
3.2565e-19
3.25815e-19
3.25974e-19
3.26128e-19
3.26276e-19
3.2642e-19
3.26561e-19
3.26698e-19
3.26832e-19
3.26965e-19
3.27095e-19
3.27225e-19
3.27354e-19
3.27484e-19
3.27616e-19
3.2775e-19
3.27888e-19
3.28031e-19
3.28182e-19
3.28343e-19
3.28515e-19
3.28703e-19
3.28909e-19
3.29139e-19
3.29394e-19
3.29676e-19
3.30022e-19
3.10676e-19
9.22684e-19
1.03537e-18
1.04653e-18
1.0468e-18
1.04645e-18
1.04641e-18
1.04674e-18
1.04715e-18
1.04767e-18
1.04828e-18
1.04886e-18
1.04941e-18
1.05e-18
1.05055e-18
1.05108e-18
1.0516e-18
1.05207e-18
1.05251e-18
1.0529e-18
1.0532e-18
1.05343e-18
1.05357e-18
1.05333e-18
1.05285e-18
1.05222e-18
1.05151e-18
1.05084e-18
1.05055e-18
1.05075e-18
1.05184e-18
1.05518e-18
1.06068e-18
1.06525e-18
1.07094e-18
1.07745e-18
1.08122e-18
1.07238e-18
9.43015e-19
3.30049e-19
3.10633e-19
1.0545e-18
1.19014e-18
1.19983e-18
1.19977e-18
1.20021e-18
1.20069e-18
1.20136e-18
1.20204e-18
1.20274e-18
1.20347e-18
1.20407e-18
1.20466e-18
1.20533e-18
1.20593e-18
1.2065e-18
1.20709e-18
1.20762e-18
1.20813e-18
1.2086e-18
1.20899e-18
1.20931e-18
1.20967e-18
1.20995e-18
1.21016e-18
1.21034e-18
1.2105e-18
1.2107e-18
1.21096e-18
1.21102e-18
1.21182e-18
1.21405e-18
1.2162e-18
1.21973e-18
1.22291e-18
1.22787e-18
1.22865e-18
1.20994e-18
1.02351e-18
3.30024e-19
3.10542e-19
1.05782e-18
1.20082e-18
1.20885e-18
1.20974e-18
1.21054e-18
1.21126e-18
1.212e-18
1.2127e-18
1.2134e-18
1.2141e-18
1.21475e-18
1.2154e-18
1.21601e-18
1.21654e-18
1.21708e-18
1.21774e-18
1.21833e-18
1.21887e-18
1.21935e-18
1.21978e-18
1.22017e-18
1.22069e-18
1.22108e-18
1.22144e-18
1.22173e-18
1.22192e-18
1.22198e-18
1.22173e-18
1.22122e-18
1.22191e-18
1.2224e-18
1.22388e-18
1.2271e-18
1.22793e-18
1.23341e-18
1.23376e-18
1.21453e-18
1.02572e-18
3.2999e-19
3.10439e-19
1.05106e-18
1.19814e-18
1.20421e-18
1.20844e-18
1.20932e-18
1.21032e-18
1.21107e-18
1.21179e-18
1.21248e-18
1.21315e-18
1.21379e-18
1.21443e-18
1.21506e-18
1.21567e-18
1.21632e-18
1.21695e-18
1.21762e-18
1.21814e-18
1.21857e-18
1.21902e-18
1.2196e-18
1.22013e-18
1.22054e-18
1.22091e-18
1.22113e-18
1.22122e-18
1.2208e-18
1.21994e-18
1.21945e-18
1.21941e-18
1.21844e-18
1.21713e-18
1.22271e-18
1.22488e-18
1.2289e-18
1.23235e-18
1.21118e-18
1.02427e-18
3.29953e-19
3.10332e-19
1.04081e-18
1.19085e-18
1.20342e-18
1.205e-18
1.2076e-18
1.20821e-18
1.20914e-18
1.20986e-18
1.21056e-18
1.21123e-18
1.21187e-18
1.21251e-18
1.21314e-18
1.21375e-18
1.21439e-18
1.21502e-18
1.21566e-18
1.21627e-18
1.21681e-18
1.21732e-18
1.21791e-18
1.2184e-18
1.21882e-18
1.21915e-18
1.2193e-18
1.2193e-18
1.21869e-18
1.21782e-18
1.21722e-18
1.21623e-18
1.21344e-18
1.21331e-18
1.21374e-18
1.22092e-18
1.22233e-18
1.22883e-18
1.2094e-18
1.02301e-18
3.29915e-19
3.10228e-19
1.03268e-18
1.18543e-18
1.2019e-18
1.20396e-18
1.20483e-18
1.20596e-18
1.207e-18
1.2078e-18
1.2085e-18
1.20915e-18
1.20979e-18
1.21041e-18
1.21103e-18
1.21165e-18
1.21227e-18
1.21289e-18
1.21353e-18
1.21415e-18
1.21475e-18
1.21535e-18
1.21589e-18
1.21637e-18
1.21677e-18
1.21724e-18
1.21733e-18
1.21714e-18
1.21656e-18
1.21566e-18
1.21454e-18
1.2132e-18
1.20979e-18
1.21104e-18
1.20975e-18
1.21336e-18
1.21734e-18
1.22335e-18
1.20655e-18
1.02246e-18
3.29877e-19
3.10131e-19
1.02688e-18
1.18147e-18
1.19607e-18
1.2005e-18
1.20202e-18
1.20366e-18
1.20488e-18
1.20573e-18
1.20644e-18
1.20707e-18
1.20768e-18
1.20828e-18
1.20888e-18
1.20947e-18
1.21007e-18
1.21068e-18
1.2113e-18
1.21193e-18
1.21255e-18
1.21317e-18
1.21371e-18
1.21421e-18
1.21461e-18
1.21504e-18
1.2152e-18
1.21504e-18
1.21444e-18
1.21352e-18
1.21216e-18
1.21077e-18
1.20846e-18
1.20674e-18
1.20615e-18
1.20806e-18
1.21188e-18
1.21902e-18
1.20444e-18
1.02248e-18
3.29841e-19
3.10041e-19
1.02176e-18
1.17688e-18
1.19135e-18
1.19757e-18
1.20115e-18
1.2022e-18
1.20297e-18
1.20378e-18
1.20446e-18
1.20506e-18
1.20564e-18
1.20619e-18
1.20676e-18
1.20732e-18
1.2079e-18
1.20848e-18
1.20908e-18
1.20968e-18
1.2103e-18
1.21091e-18
1.21146e-18
1.21197e-18
1.21241e-18
1.2127e-18
1.21296e-18
1.21295e-18
1.21243e-18
1.21152e-18
1.21012e-18
1.20857e-18
1.2067e-18
1.20407e-18
1.20322e-18
1.20394e-18
1.20738e-18
1.21399e-18
1.20273e-18
1.02307e-18
3.29807e-19
3.09959e-19
1.01785e-18
1.17425e-18
1.19013e-18
1.19554e-18
1.19813e-18
1.20055e-18
1.20131e-18
1.20191e-18
1.20262e-18
1.20318e-18
1.20371e-18
1.20422e-18
1.20475e-18
1.20527e-18
1.2058e-18
1.20635e-18
1.20691e-18
1.20749e-18
1.20807e-18
1.20867e-18
1.20922e-18
1.20972e-18
1.21016e-18
1.21043e-18
1.2108e-18
1.21078e-18
1.21038e-18
1.20955e-18
1.20825e-18
1.20674e-18
1.20501e-18
1.2021e-18
1.20085e-18
1.20077e-18
1.20326e-18
1.20823e-18
1.20151e-18
1.02412e-18
3.29773e-19
3.09885e-19
1.01441e-18
1.17156e-18
1.18777e-18
1.19277e-18
1.19613e-18
1.19839e-18
1.1998e-18
1.20035e-18
1.20105e-18
1.20154e-18
1.20194e-18
1.20238e-18
1.2029e-18
1.20336e-18
1.20386e-18
1.20436e-18
1.20488e-18
1.20541e-18
1.20596e-18
1.20651e-18
1.20706e-18
1.20754e-18
1.20798e-18
1.20827e-18
1.20864e-18
1.20867e-18
1.20837e-18
1.20766e-18
1.20655e-18
1.2049e-18
1.2036e-18
1.20074e-18
1.19951e-18
1.19939e-18
1.20081e-18
1.20392e-18
1.19996e-18
1.02588e-18
3.29741e-19
3.09817e-19
1.01164e-18
1.16956e-18
1.18626e-18
1.19161e-18
1.19516e-18
1.19699e-18
1.19804e-18
1.19909e-18
1.19951e-18
1.19996e-18
1.20039e-18
1.20085e-18
1.2013e-18
1.20166e-18
1.2021e-18
1.20256e-18
1.20302e-18
1.20351e-18
1.204e-18
1.20451e-18
1.20501e-18
1.20549e-18
1.20591e-18
1.20627e-18
1.20653e-18
1.20663e-18
1.20641e-18
1.20582e-18
1.20494e-18
1.2029e-18
1.2025e-18
1.19955e-18
1.19812e-18
1.19758e-18
1.19947e-18
1.20308e-18
1.19777e-18
1.02771e-18
3.29709e-19
3.09756e-19
1.00871e-18
1.16788e-18
1.18502e-18
1.19065e-18
1.19378e-18
1.19536e-18
1.19671e-18
1.1976e-18
1.19814e-18
1.19856e-18
1.19906e-18
1.19948e-18
1.19982e-18
1.20021e-18
1.2006e-18
1.201e-18
1.20138e-18
1.20181e-18
1.20225e-18
1.2027e-18
1.20316e-18
1.2036e-18
1.20402e-18
1.20437e-18
1.20459e-18
1.20472e-18
1.20457e-18
1.20407e-18
1.20339e-18
1.2017e-18
1.20109e-18
1.19874e-18
1.19742e-18
1.19723e-18
1.19806e-18
1.20129e-18
1.19567e-18
1.02941e-18
3.29679e-19
3.09701e-19
1.00622e-18
1.16637e-18
1.18369e-18
1.18914e-18
1.19208e-18
1.19405e-18
1.1955e-18
1.1964e-18
1.19701e-18
1.19748e-18
1.19789e-18
1.19826e-18
1.19856e-18
1.19896e-18
1.1993e-18
1.19962e-18
1.19999e-18
1.20035e-18
1.20073e-18
1.20112e-18
1.20152e-18
1.20191e-18
1.20232e-18
1.20261e-18
1.20285e-18
1.20299e-18
1.20289e-18
1.2025e-18
1.20192e-18
1.20101e-18
1.19956e-18
1.19788e-18
1.19662e-18
1.19629e-18
1.19767e-18
1.20061e-18
1.19451e-18
1.03153e-18
3.2965e-19
3.09652e-19
1.00428e-18
1.16502e-18
1.18248e-18
1.18788e-18
1.1909e-18
1.19311e-18
1.19457e-18
1.1954e-18
1.19604e-18
1.19652e-18
1.19693e-18
1.19728e-18
1.19758e-18
1.19789e-18
1.19818e-18
1.19847e-18
1.1988e-18
1.1991e-18
1.19942e-18
1.19977e-18
1.20011e-18
1.20046e-18
1.20081e-18
1.20107e-18
1.20131e-18
1.20144e-18
1.20139e-18
1.20111e-18
1.2006e-18
1.19998e-18
1.19864e-18
1.19732e-18
1.19627e-18
1.19617e-18
1.19801e-18
1.19989e-18
1.19306e-18
1.03337e-18
3.29621e-19
3.09607e-19
1.00271e-18
1.16378e-18
1.18131e-18
1.18672e-18
1.18996e-18
1.19217e-18
1.19345e-18
1.19445e-18
1.19515e-18
1.19568e-18
1.1961e-18
1.19644e-18
1.19673e-18
1.19701e-18
1.19727e-18
1.19753e-18
1.19779e-18
1.19806e-18
1.19834e-18
1.19863e-18
1.19892e-18
1.19922e-18
1.1995e-18
1.19976e-18
1.19997e-18
1.2001e-18
1.20009e-18
1.19991e-18
1.19942e-18
1.19905e-18
1.19791e-18
1.19684e-18
1.19586e-18
1.19558e-18
1.19737e-18
1.20004e-18
1.19281e-18
1.03542e-18
3.29593e-19
3.09566e-19
1.00134e-18
1.16251e-18
1.18006e-18
1.18542e-18
1.18873e-18
1.19088e-18
1.19235e-18
1.19351e-18
1.19432e-18
1.19492e-18
1.19537e-18
1.19572e-18
1.19601e-18
1.19627e-18
1.19651e-18
1.19673e-18
1.19696e-18
1.19719e-18
1.19743e-18
1.19767e-18
1.19792e-18
1.19817e-18
1.19841e-18
1.19864e-18
1.19883e-18
1.19896e-18
1.19897e-18
1.19885e-18
1.19845e-18
1.19809e-18
1.19725e-18
1.19662e-18
1.19589e-18
1.19562e-18
1.19688e-18
1.20043e-18
1.19329e-18
1.03688e-18
3.29565e-19
3.09529e-19
9.99997e-19
1.16122e-18
1.17871e-18
1.18399e-18
1.18732e-18
1.18961e-18
1.19133e-18
1.19261e-18
1.19353e-18
1.19419e-18
1.19469e-18
1.19506e-18
1.19536e-18
1.19562e-18
1.19584e-18
1.19605e-18
1.19626e-18
1.19646e-18
1.19666e-18
1.19687e-18
1.19708e-18
1.1973e-18
1.19751e-18
1.19771e-18
1.19789e-18
1.19801e-18
1.19807e-18
1.19802e-18
1.19788e-18
1.19755e-18
1.19692e-18
1.196e-18
1.19542e-18
1.19564e-18
1.19697e-18
1.19983e-18
1.19356e-18
1.0393e-18
3.29536e-19
3.09495e-19
9.98813e-19
1.15982e-18
1.17726e-18
1.18245e-18
1.18585e-18
1.18833e-18
1.19023e-18
1.19166e-18
1.1927e-18
1.19346e-18
1.19401e-18
1.19442e-18
1.19474e-18
1.19501e-18
1.19523e-18
1.19543e-18
1.19561e-18
1.1958e-18
1.19598e-18
1.19617e-18
1.19636e-18
1.19655e-18
1.19673e-18
1.19691e-18
1.19708e-18
1.19721e-18
1.19728e-18
1.19726e-18
1.19713e-18
1.19686e-18
1.19639e-18
1.19583e-18
1.19546e-18
1.19567e-18
1.19696e-18
1.19954e-18
1.19345e-18
1.04073e-18
3.29507e-19
3.09464e-19
9.96836e-19
1.15856e-18
1.17575e-18
1.18081e-18
1.18427e-18
1.18693e-18
1.18903e-18
1.19063e-18
1.19181e-18
1.19267e-18
1.1933e-18
1.19376e-18
1.19411e-18
1.19439e-18
1.19462e-18
1.19482e-18
1.19501e-18
1.19519e-18
1.19536e-18
1.19554e-18
1.19571e-18
1.19589e-18
1.19607e-18
1.19624e-18
1.19639e-18
1.19651e-18
1.19658e-18
1.1966e-18
1.19653e-18
1.19634e-18
1.19603e-18
1.19565e-18
1.19542e-18
1.19573e-18
1.19703e-18
1.19956e-18
1.19349e-18
1.04177e-18
3.29477e-19
3.09434e-19
9.95077e-19
1.1569e-18
1.17414e-18
1.17906e-18
1.18256e-18
1.18537e-18
1.18767e-18
1.1895e-18
1.19083e-18
1.19181e-18
1.19251e-18
1.19302e-18
1.19342e-18
1.19374e-18
1.19399e-18
1.19419e-18
1.19439e-18
1.19457e-18
1.19475e-18
1.19493e-18
1.1951e-18
1.19527e-18
1.19544e-18
1.19561e-18
1.19576e-18
1.19589e-18
1.19597e-18
1.19601e-18
1.19598e-18
1.19587e-18
1.19566e-18
1.19542e-18
1.19531e-18
1.19568e-18
1.19693e-18
1.19928e-18
1.19335e-18
1.04278e-18
3.29445e-19
3.09406e-19
9.93462e-19
1.15549e-18
1.17232e-18
1.17714e-18
1.18069e-18
1.18362e-18
1.18621e-18
1.18832e-18
1.18976e-18
1.19085e-18
1.19163e-18
1.1922e-18
1.19264e-18
1.19298e-18
1.19326e-18
1.1935e-18
1.19371e-18
1.19391e-18
1.19411e-18
1.19429e-18
1.19447e-18
1.19465e-18
1.19483e-18