/*--------------------------------*- C++ -*----------------------------------*\
  =========                 |
  \\      /  F ield         | OpenFOAM: The Open Source CFD Toolbox
   \\    /   O peration     | Website:  https://openfoam.org
    \\  /    A nd           | Version:  12
     \\/     M anipulation  |
\*---------------------------------------------------------------------------*/
FoamFile
{
    format      ascii;
    class       volScalarField;
    location    "450";
    object      nut;
}
// * * * * * * * * * * * * * * * * * * * * * * * * * * * * * * * * * * * * * //

dimensions      [0 2 -1 0 0 0 0];

internalField   nonuniform List<scalar> 
8000
(
1.7376e-19
1.75625e-19
1.76515e-19
1.76933e-19
1.77137e-19
1.77256e-19
1.77342e-19
1.77413e-19
1.77477e-19
1.77536e-19
1.77591e-19
1.77642e-19
1.77692e-19
1.77739e-19
1.77784e-19
1.77827e-19
1.77869e-19
1.7791e-19
1.77949e-19
1.77987e-19
1.78025e-19
1.78061e-19
1.78097e-19
1.78133e-19
1.78168e-19
1.78203e-19
1.78238e-19
1.78274e-19
1.7831e-19
1.78347e-19
1.78386e-19
1.78426e-19
1.7847e-19
1.78517e-19
1.78569e-19
1.78626e-19
1.7869e-19
1.7876e-19
1.78838e-19
1.78936e-19
1.73625e-19
1.75624e-19
1.7653e-19
1.76947e-19
1.77143e-19
1.77257e-19
1.77339e-19
1.77408e-19
1.7747e-19
1.77527e-19
1.77581e-19
1.77631e-19
1.7768e-19
1.77726e-19
1.77771e-19
1.77814e-19
1.77855e-19
1.77895e-19
1.77934e-19
1.77972e-19
1.78009e-19
1.78045e-19
1.78081e-19
1.78116e-19
1.7815e-19
1.78184e-19
1.78217e-19
1.78251e-19
1.78285e-19
1.7832e-19
1.78355e-19
1.78393e-19
1.78433e-19
1.78478e-19
1.78528e-19
1.78586e-19
1.78653e-19
1.78731e-19
1.78819e-19
1.78938e-19
1.73608e-19
1.75567e-19
1.76485e-19
1.76917e-19
1.77117e-19
1.77229e-19
1.77309e-19
1.77375e-19
1.77435e-19
1.7749e-19
1.77542e-19
1.77592e-19
1.7764e-19
1.77685e-19
1.77729e-19
1.77771e-19
1.77812e-19
1.77852e-19
1.7789e-19
1.77928e-19
1.77964e-19
1.78e-19
1.78034e-19
1.78068e-19
1.781e-19
1.78132e-19
1.78162e-19
1.78192e-19
1.78221e-19
1.7825e-19
1.7828e-19
1.78311e-19
1.78345e-19
1.78386e-19
1.78435e-19
1.78497e-19
1.78574e-19
1.78669e-19
1.7878e-19
1.78931e-19
1.73583e-19
1.75469e-19
1.76391e-19
1.76842e-19
1.77053e-19
1.77166e-19
1.77244e-19
1.77309e-19
1.77366e-19
1.77419e-19
1.7747e-19
1.77518e-19
1.77565e-19
1.77609e-19
1.77652e-19
1.77694e-19
1.77735e-19
1.77774e-19
1.77812e-19
1.7785e-19
1.77886e-19
1.7792e-19
1.77954e-19
1.77985e-19
1.78016e-19
1.78044e-19
1.78071e-19
1.78095e-19
1.78118e-19
1.7814e-19
1.78162e-19
1.78186e-19
1.78215e-19
1.78252e-19
1.78303e-19
1.78372e-19
1.78465e-19
1.78585e-19
1.78727e-19
1.78921e-19
1.73555e-19
1.75356e-19
1.76271e-19
1.76737e-19
1.76958e-19
1.77074e-19
1.77151e-19
1.77212e-19
1.77267e-19
1.77318e-19
1.77366e-19
1.77413e-19
1.77458e-19
1.77502e-19
1.77544e-19
1.77586e-19
1.77626e-19
1.77665e-19
1.77703e-19
1.7774e-19
1.77776e-19
1.7781e-19
1.77842e-19
1.77873e-19
1.77901e-19
1.77926e-19
1.77949e-19
1.77968e-19
1.77986e-19
1.78001e-19
1.78017e-19
1.78035e-19
1.78059e-19
1.78095e-19
1.7815e-19
1.7823e-19
1.78343e-19
1.7849e-19
1.78668e-19
1.7891e-19
1.73526e-19
1.75237e-19
1.76137e-19
1.76614e-19
1.76843e-19
1.76962e-19
1.77036e-19
1.77094e-19
1.77145e-19
1.77193e-19
1.77239e-19
1.77283e-19
1.77327e-19
1.77369e-19
1.77411e-19
1.77452e-19
1.77492e-19
1.77531e-19
1.77569e-19
1.77605e-19
1.77641e-19
1.77675e-19
1.77707e-19
1.77736e-19
1.77762e-19
1.77786e-19
1.77805e-19
1.77821e-19
1.77834e-19
1.77845e-19
1.77856e-19
1.77871e-19
1.77893e-19
1.77931e-19
1.77992e-19
1.78085e-19
1.78218e-19
1.78395e-19
1.78608e-19
1.78899e-19
1.73499e-19
1.75118e-19
1.75998e-19
1.76479e-19
1.76716e-19
1.76836e-19
1.76909e-19
1.76963e-19
1.7701e-19
1.77054e-19
1.77096e-19
1.77138e-19
1.7718e-19
1.7722e-19
1.77261e-19
1.77301e-19
1.7734e-19
1.77378e-19
1.77416e-19
1.77453e-19
1.77488e-19
1.77522e-19
1.77554e-19
1.77583e-19
1.77608e-19
1.7763e-19
1.77648e-19
1.77662e-19
1.77673e-19
1.77682e-19
1.77691e-19
1.77704e-19
1.77727e-19
1.77768e-19
1.77837e-19
1.77944e-19
1.78098e-19
1.78302e-19
1.7855e-19
1.78888e-19
1.73473e-19
1.75003e-19
1.75857e-19
1.7634e-19
1.76583e-19
1.76705e-19
1.76776e-19
1.76826e-19
1.76869e-19
1.76909e-19
1.76948e-19
1.76986e-19
1.77025e-19
1.77064e-19
1.77102e-19
1.7714e-19
1.77179e-19
1.77216e-19
1.77254e-19
1.7729e-19
1.77325e-19
1.77359e-19
1.77391e-19
1.7742e-19
1.77445e-19
1.77467e-19
1.77485e-19
1.77499e-19
1.77509e-19
1.77517e-19
1.77526e-19
1.77541e-19
1.77565e-19
1.77611e-19
1.77689e-19
1.77809e-19
1.77982e-19
1.78212e-19
1.78493e-19
1.78877e-19
1.73449e-19
1.74892e-19
1.75719e-19
1.762e-19
1.76448e-19
1.76573e-19
1.76643e-19
1.7669e-19
1.76729e-19
1.76765e-19
1.768e-19
1.76835e-19
1.7687e-19
1.76906e-19
1.76942e-19
1.76979e-19
1.77015e-19
1.77052e-19
1.77088e-19
1.77124e-19
1.77159e-19
1.77192e-19
1.77224e-19
1.77253e-19
1.77279e-19
1.77302e-19
1.7732e-19
1.77335e-19
1.77346e-19
1.77355e-19
1.77366e-19
1.77383e-19
1.77411e-19
1.77462e-19
1.77548e-19
1.77681e-19
1.77872e-19
1.78126e-19
1.78439e-19
1.78867e-19
1.73427e-19
1.74788e-19
1.75586e-19
1.76063e-19
1.76315e-19
1.76444e-19
1.76514e-19
1.76559e-19
1.76595e-19
1.76627e-19
1.76658e-19
1.76689e-19
1.76722e-19
1.76754e-19
1.76788e-19
1.76822e-19
1.76856e-19
1.76891e-19
1.76926e-19
1.7696e-19
1.76994e-19
1.77027e-19
1.77059e-19
1.77088e-19
1.77115e-19
1.77138e-19
1.77158e-19
1.77174e-19
1.77187e-19
1.77198e-19
1.77212e-19
1.77232e-19
1.77264e-19
1.7732e-19
1.77414e-19
1.77559e-19
1.77767e-19
1.78044e-19
1.78386e-19
1.78857e-19
1.73406e-19
1.74691e-19
1.7546e-19
1.75932e-19
1.76187e-19
1.7632e-19
1.76392e-19
1.76436e-19
1.76469e-19
1.76499e-19
1.76526e-19
1.76555e-19
1.76583e-19
1.76613e-19
1.76643e-19
1.76674e-19
1.76706e-19
1.76739e-19
1.76771e-19
1.76804e-19
1.76837e-19
1.76869e-19
1.769e-19
1.76929e-19
1.76956e-19
1.7698e-19
1.77001e-19
1.77019e-19
1.77034e-19
1.77048e-19
1.77065e-19
1.77088e-19
1.77125e-19
1.77187e-19
1.77289e-19
1.77444e-19
1.77667e-19
1.77966e-19
1.78336e-19
1.78848e-19
1.73387e-19
1.74601e-19
1.75342e-19
1.75807e-19
1.76066e-19
1.76204e-19
1.76278e-19
1.76323e-19
1.76356e-19
1.76383e-19
1.76408e-19
1.76433e-19
1.76458e-19
1.76485e-19
1.76512e-19
1.7654e-19
1.76569e-19
1.76598e-19
1.76629e-19
1.76659e-19
1.7669e-19
1.7672e-19
1.7675e-19
1.76779e-19
1.76805e-19
1.7683e-19
1.76852e-19
1.76872e-19
1.76889e-19
1.76907e-19
1.76926e-19
1.76954e-19
1.76995e-19
1.77063e-19
1.77171e-19
1.77335e-19
1.77572e-19
1.77891e-19
1.78288e-19
1.78838e-19
1.7337e-19
1.74518e-19
1.75231e-19
1.75691e-19
1.75953e-19
1.76096e-19
1.76174e-19
1.76221e-19
1.76254e-19
1.7628e-19
1.76303e-19
1.76326e-19
1.76348e-19
1.76372e-19
1.76396e-19
1.76421e-19
1.76446e-19
1.76473e-19
1.765e-19
1.76528e-19
1.76557e-19
1.76585e-19
1.76613e-19
1.7664e-19
1.76666e-19
1.76691e-19
1.76714e-19
1.76735e-19
1.76754e-19
1.76774e-19
1.76797e-19
1.76828e-19
1.76874e-19
1.76947e-19
1.77061e-19
1.77234e-19
1.77483e-19
1.7782e-19
1.78242e-19
1.7883e-19
1.73355e-19
1.74441e-19
1.75128e-19
1.75582e-19
1.75848e-19
1.75997e-19
1.7608e-19
1.7613e-19
1.76164e-19
1.7619e-19
1.76212e-19
1.76233e-19
1.76253e-19
1.76274e-19
1.76295e-19
1.76317e-19
1.7634e-19
1.76363e-19
1.76388e-19
1.76413e-19
1.76438e-19
1.76464e-19
1.7649e-19
1.76515e-19
1.7654e-19
1.76564e-19
1.76587e-19
1.76609e-19
1.7663e-19
1.76652e-19
1.76678e-19
1.76712e-19
1.76762e-19
1.7684e-19
1.76959e-19
1.77139e-19
1.77399e-19
1.77753e-19
1.78198e-19
1.78821e-19
1.7334e-19
1.74371e-19
1.75034e-19
1.7548e-19
1.75751e-19
1.75906e-19
1.75995e-19
1.7605e-19
1.76086e-19
1.76112e-19
1.76134e-19
1.76154e-19
1.76173e-19
1.76191e-19
1.7621e-19
1.76229e-19
1.76249e-19
1.7627e-19
1.76291e-19
1.76313e-19
1.76336e-19
1.76359e-19
1.76382e-19
1.76405e-19
1.76429e-19
1.76451e-19
1.76474e-19
1.76496e-19
1.76518e-19
1.76541e-19
1.7657e-19
1.76607e-19
1.7666e-19
1.76741e-19
1.76865e-19
1.77051e-19
1.7732e-19
1.77688e-19
1.78155e-19
1.78813e-19
1.73328e-19
1.74307e-19
1.74946e-19
1.75387e-19
1.75661e-19
1.75823e-19
1.75919e-19
1.75978e-19
1.76017e-19
1.76045e-19
1.76067e-19
1.76087e-19
1.76104e-19
1.76121e-19
1.76138e-19
1.76155e-19
1.76172e-19
1.7619e-19
1.76209e-19
1.76228e-19
1.76248e-19
1.76268e-19
1.76289e-19
1.7631e-19
1.76331e-19
1.76353e-19
1.76374e-19
1.76395e-19
1.76418e-19
1.76442e-19
1.76472e-19
1.76511e-19
1.76567e-19
1.76651e-19
1.76778e-19
1.76968e-19
1.77244e-19
1.77625e-19
1.78113e-19
1.78804e-19
1.73316e-19
1.74248e-19
1.74865e-19
1.75299e-19
1.75577e-19
1.75746e-19
1.75849e-19
1.75913e-19
1.75956e-19
1.75986e-19
1.7601e-19
1.76029e-19
1.76046e-19
1.76062e-19
1.76077e-19
1.76093e-19
1.76108e-19
1.76124e-19
1.7614e-19
1.76157e-19
1.76174e-19
1.76192e-19
1.7621e-19
1.76229e-19
1.76248e-19
1.76268e-19
1.76287e-19
1.76308e-19
1.7633e-19
1.76355e-19
1.76386e-19
1.76426e-19
1.76483e-19
1.76568e-19
1.76697e-19
1.76889e-19
1.77171e-19
1.77564e-19
1.78071e-19
1.78796e-19
1.73305e-19
1.74193e-19
1.7479e-19
1.75218e-19
1.75499e-19
1.75674e-19
1.75784e-19
1.75853e-19
1.759e-19
1.75933e-19
1.75958e-19
1.75978e-19
1.75995e-19
1.7601e-19
1.76025e-19
1.76039e-19
1.76054e-19
1.76068e-19
1.76082e-19
1.76097e-19
1.76112e-19
1.76128e-19
1.76144e-19
1.76161e-19
1.76178e-19
1.76195e-19
1.76214e-19
1.76233e-19
1.76254e-19
1.76279e-19
1.7631e-19
1.76351e-19
1.76408e-19
1.76493e-19
1.76622e-19
1.76815e-19
1.77101e-19
1.77504e-19
1.7803e-19
1.78788e-19
1.73295e-19
1.74143e-19
1.74719e-19
1.75142e-19
1.75425e-19
1.75606e-19
1.75722e-19
1.75796e-19
1.75847e-19
1.75882e-19
1.75909e-19
1.7593e-19
1.75948e-19
1.75963e-19
1.75978e-19
1.75992e-19
1.76005e-19
1.76019e-19
1.76032e-19
1.76045e-19
1.76059e-19
1.76073e-19
1.76088e-19
1.76102e-19
1.76118e-19
1.76134e-19
1.76151e-19
1.76169e-19
1.76189e-19
1.76213e-19
1.76243e-19
1.76284e-19
1.7634e-19
1.76424e-19
1.76551e-19
1.76744e-19
1.77032e-19
1.77443e-19
1.77988e-19
1.78779e-19
1.73286e-19
1.74096e-19
1.74653e-19
1.75069e-19
1.75353e-19
1.7554e-19
1.75661e-19
1.7574e-19
1.75794e-19
1.75832e-19
1.7586e-19
1.75882e-19
1.75901e-19
1.75917e-19
1.75932e-19
1.75946e-19
1.7596e-19
1.75973e-19
1.75986e-19
1.75999e-19
1.76012e-19
1.76025e-19
1.76038e-19
1.76052e-19
1.76066e-19
1.76081e-19
1.76096e-19
1.76113e-19
1.76133e-19
1.76156e-19
1.76185e-19
1.76224e-19
1.76279e-19
1.7636e-19
1.76484e-19
1.76675e-19
1.76963e-19
1.77382e-19
1.77944e-19
1.78771e-19
1.73277e-19
1.74052e-19
1.7459e-19
1.74998e-19
1.75283e-19
1.75473e-19
1.75599e-19
1.75682e-19
1.75738e-19
1.75778e-19
1.75808e-19
1.75832e-19
1.75851e-19
1.75869e-19
1.75885e-19
1.75899e-19
1.75914e-19
1.75927e-19
1.75941e-19
1.75954e-19
1.75967e-19
1.7598e-19
1.75993e-19
1.76006e-19
1.76019e-19
1.76033e-19
1.76048e-19
1.76064e-19
1.76082e-19
1.76104e-19
1.76132e-19
1.76169e-19
1.76221e-19
1.763e-19
1.76419e-19
1.76606e-19
1.76894e-19
1.77319e-19
1.77899e-19
1.78762e-19
1.73269e-19
1.74009e-19
1.74529e-19
1.74929e-19
1.75213e-19
1.75406e-19
1.75534e-19
1.75619e-19
1.75678e-19
1.75719e-19
1.75751e-19
1.75775e-19
1.75796e-19
1.75815e-19
1.75832e-19
1.75848e-19
1.75864e-19
1.75878e-19
1.75893e-19
1.75907e-19
1.75921e-19
1.75934e-19
1.75948e-19
1.75961e-19
1.75974e-19
1.75988e-19
1.76002e-19
1.76018e-19
1.76035e-19
1.76056e-19
1.76082e-19
1.76117e-19
1.76166e-19
1.7624e-19
1.76355e-19
1.76536e-19
1.76822e-19
1.77253e-19
1.77851e-19
1.78752e-19
1.73261e-19
1.73968e-19
1.74469e-19
1.7486e-19
1.75141e-19
1.75335e-19
1.75465e-19
1.75552e-19
1.75611e-19
1.75654e-19
1.75685e-19
1.75711e-19
1.75733e-19
1.75753e-19
1.75771e-19
1.75789e-19
1.75806e-19
1.75823e-19
1.75839e-19
1.75855e-19
1.7587e-19
1.75885e-19
1.75899e-19
1.75913e-19
1.75927e-19
1.75942e-19
1.75956e-19
1.75971e-19
1.75988e-19
1.76008e-19
1.76033e-19
1.76065e-19
1.76111e-19
1.7618e-19
1.76289e-19
1.76464e-19
1.76747e-19
1.77183e-19
1.778e-19
1.78742e-19
1.73253e-19
1.73928e-19
1.7441e-19
1.7479e-19
1.75068e-19
1.7526e-19
1.7539e-19
1.75477e-19
1.75537e-19
1.75579e-19
1.75611e-19
1.75636e-19
1.75659e-19
1.7568e-19
1.757e-19
1.7572e-19
1.75739e-19
1.75757e-19
1.75776e-19
1.75794e-19
1.75811e-19
1.75828e-19
1.75844e-19
1.7586e-19
1.75875e-19
1.75891e-19
1.75906e-19
1.75922e-19
1.75939e-19
1.75958e-19
1.75981e-19
1.76011e-19
1.76054e-19
1.76118e-19
1.7622e-19
1.76389e-19
1.76667e-19
1.77108e-19
1.77745e-19
1.7873e-19
1.73245e-19
1.73888e-19
1.74351e-19
1.74719e-19
1.7499e-19
1.7518e-19
1.75309e-19
1.75395e-19
1.75453e-19
1.75494e-19
1.75525e-19
1.75551e-19
1.75574e-19
1.75595e-19
1.75617e-19
1.75638e-19
1.75659e-19
1.7568e-19
1.75701e-19
1.75721e-19
1.75741e-19
1.7576e-19
1.75779e-19
1.75797e-19
1.75815e-19
1.75832e-19
1.75848e-19
1.75865e-19
1.75883e-19
1.75902e-19
1.75925e-19
1.75953e-19
1.75992e-19
1.76051e-19
1.76147e-19
1.76308e-19
1.76582e-19
1.77028e-19
1.77685e-19
1.78718e-19
1.73237e-19
1.73848e-19
1.7429e-19
1.74645e-19
1.74908e-19
1.75094e-19
1.7522e-19
1.75304e-19
1.7536e-19
1.75399e-19
1.75428e-19
1.75453e-19
1.75476e-19
1.75498e-19
1.7552e-19
1.75543e-19
1.75566e-19
1.75589e-19
1.75613e-19
1.75636e-19
1.75658e-19
1.7568e-19
1.75702e-19
1.75723e-19
1.75743e-19
1.75762e-19
1.75781e-19
1.75799e-19
1.75818e-19
1.75838e-19
1.7586e-19
1.75887e-19
1.75923e-19
1.75978e-19
1.76067e-19
1.76221e-19
1.76491e-19
1.76941e-19
1.7762e-19
1.78705e-19
1.73229e-19
1.73807e-19
1.74227e-19
1.74567e-19
1.74822e-19
1.75002e-19
1.75123e-19
1.75204e-19
1.75256e-19
1.75293e-19
1.7532e-19
1.75344e-19
1.75365e-19
1.75387e-19
1.7541e-19
1.75434e-19
1.75459e-19
1.75484e-19
1.7551e-19
1.75535e-19
1.75561e-19
1.75586e-19
1.7561e-19
1.75634e-19
1.75657e-19
1.75679e-19
1.75701e-19
1.75721e-19
1.75742e-19
1.75763e-19
1.75786e-19
1.75812e-19
1.75846e-19
1.75896e-19
1.7598e-19
1.76127e-19
1.76392e-19
1.76847e-19
1.7755e-19
1.7869e-19
1.73221e-19
1.73765e-19
1.74162e-19
1.74486e-19
1.74729e-19
1.74902e-19
1.75018e-19
1.75094e-19
1.75144e-19
1.75177e-19
1.75202e-19
1.75223e-19
1.75243e-19
1.75264e-19
1.75287e-19
1.75311e-19
1.75337e-19
1.75364e-19
1.75392e-19
1.7542e-19
1.75448e-19
1.75476e-19
1.75504e-19
1.7553e-19
1.75556e-19
1.75582e-19
1.75606e-19
1.7563e-19
1.75653e-19
1.75676e-19
1.75699e-19
1.75726e-19
1.75759e-19
1.75806e-19
1.75885e-19
1.76026e-19
1.76286e-19
1.76746e-19
1.77473e-19
1.78674e-19
1.73213e-19
1.73722e-19
1.74095e-19
1.744e-19
1.74631e-19
1.74795e-19
1.74905e-19
1.74977e-19
1.75021e-19
1.75051e-19
1.75073e-19
1.75091e-19
1.7511e-19
1.75129e-19
1.75152e-19
1.75176e-19
1.75202e-19
1.75231e-19
1.7526e-19
1.7529e-19
1.75321e-19
1.75351e-19
1.75382e-19
1.75411e-19
1.75441e-19
1.75469e-19
1.75496e-19
1.75523e-19
1.75549e-19
1.75575e-19
1.756e-19
1.75628e-19
1.75661e-19
1.75707e-19
1.75781e-19
1.75916e-19
1.76172e-19
1.76637e-19
1.77389e-19
1.78656e-19
1.73205e-19
1.73677e-19
1.74024e-19
1.74309e-19
1.74527e-19
1.74681e-19
1.74785e-19
1.7485e-19
1.7489e-19
1.74916e-19
1.74935e-19
1.74951e-19
1.74967e-19
1.74985e-19
1.75006e-19
1.7503e-19
1.75057e-19
1.75085e-19
1.75116e-19
1.75148e-19
1.7518e-19
1.75213e-19
1.75246e-19
1.75278e-19
1.7531e-19
1.75341e-19
1.75372e-19
1.75402e-19
1.75431e-19
1.7546e-19
1.75489e-19
1.75518e-19
1.75552e-19
1.75597e-19
1.75669e-19
1.75799e-19
1.76051e-19
1.7652e-19
1.77298e-19
1.78636e-19
1.73196e-19
1.7363e-19
1.7395e-19
1.74214e-19
1.74416e-19
1.7456e-19
1.74656e-19
1.74716e-19
1.74751e-19
1.74774e-19
1.74789e-19
1.74803e-19
1.74817e-19
1.74833e-19
1.74853e-19
1.74876e-19
1.74902e-19
1.74931e-19
1.74962e-19
1.74995e-19
1.75029e-19
1.75063e-19
1.75098e-19
1.75132e-19
1.75167e-19
1.75201e-19
1.75235e-19
1.75268e-19
1.75301e-19
1.75333e-19
1.75365e-19
1.75398e-19
1.75434e-19
1.75479e-19
1.75549e-19
1.75676e-19
1.75924e-19
1.76396e-19
1.772e-19
1.78615e-19
1.73187e-19
1.73581e-19
1.73873e-19
1.74115e-19
1.743e-19
1.74432e-19
1.74519e-19
1.74573e-19
1.74605e-19
1.74624e-19
1.74638e-19
1.74649e-19
1.74661e-19
1.74676e-19
1.74694e-19
1.74717e-19
1.74742e-19
1.74771e-19
1.74802e-19
1.74835e-19
1.7487e-19
1.74906e-19
1.74942e-19
1.74978e-19
1.75015e-19
1.75052e-19
1.75088e-19
1.75124e-19
1.7516e-19
1.75196e-19
1.75231e-19
1.75268e-19
1.75307e-19
1.75355e-19
1.75425e-19
1.75548e-19
1.75791e-19
1.76265e-19
1.77096e-19
1.78592e-19
1.73177e-19
1.73531e-19
1.73792e-19
1.7401e-19
1.74178e-19
1.74296e-19
1.74375e-19
1.74424e-19
1.74452e-19
1.74469e-19
1.74481e-19
1.74491e-19
1.74502e-19
1.74516e-19
1.74534e-19
1.74556e-19
1.74581e-19
1.7461e-19
1.74641e-19
1.74674e-19
1.74709e-19
1.74745e-19
1.74782e-19
1.7482e-19
1.74858e-19
1.74897e-19
1.74936e-19
1.74974e-19
1.75013e-19
1.75053e-19
1.75092e-19
1.75133e-19
1.75176e-19
1.75227e-19
1.75297e-19
1.75417e-19
1.75655e-19
1.7613e-19
1.76985e-19
1.78566e-19
1.73167e-19
1.73478e-19
1.73709e-19
1.73902e-19
1.74049e-19
1.74155e-19
1.74225e-19
1.74269e-19
1.74294e-19
1.7431e-19
1.74322e-19
1.74332e-19
1.74344e-19
1.74359e-19
1.74377e-19
1.74399e-19
1.74424e-19
1.74453e-19
1.74484e-19
1.74517e-19
1.74552e-19
1.74588e-19
1.74626e-19
1.74664e-19
1.74704e-19
1.74743e-19
1.74784e-19
1.74825e-19
1.74866e-19
1.74909e-19
1.74952e-19
1.74996e-19
1.75044e-19
1.75098e-19
1.7517e-19
1.75289e-19
1.7552e-19
1.75993e-19
1.7687e-19
1.7854e-19
1.73157e-19
1.73424e-19
1.73622e-19
1.73789e-19
1.73916e-19
1.74008e-19
1.7407e-19
1.74109e-19
1.74134e-19
1.74151e-19
1.74165e-19
1.74177e-19
1.74191e-19
1.74208e-19
1.74227e-19
1.7425e-19
1.74276e-19
1.74305e-19
1.74337e-19
1.7437e-19
1.74405e-19
1.74441e-19
1.74479e-19
1.74518e-19
1.74558e-19
1.74598e-19
1.7464e-19
1.74683e-19
1.74726e-19
1.74771e-19
1.74817e-19
1.74866e-19
1.74917e-19
1.74975e-19
1.75049e-19
1.75166e-19
1.7539e-19
1.75856e-19
1.76752e-19
1.78511e-19
1.73147e-19
1.73369e-19
1.73534e-19
1.73673e-19
1.73781e-19
1.73859e-19
1.73914e-19
1.73952e-19
1.73978e-19
1.73998e-19
1.74015e-19
1.74031e-19
1.74049e-19
1.7407e-19
1.74092e-19
1.74117e-19
1.74145e-19
1.74175e-19
1.74207e-19
1.7424e-19
1.74275e-19
1.74312e-19
1.7435e-19
1.74389e-19
1.74429e-19
1.7447e-19
1.74512e-19
1.74556e-19
1.74601e-19
1.74648e-19
1.74697e-19
1.74748e-19
1.74803e-19
1.74865e-19
1.74941e-19
1.75056e-19
1.75271e-19
1.75726e-19
1.76633e-19
1.78482e-19
1.73137e-19
1.73316e-19
1.73448e-19
1.7356e-19
1.73649e-19
1.73716e-19
1.73767e-19
1.73805e-19
1.73834e-19
1.73859e-19
1.73882e-19
1.73905e-19
1.73928e-19
1.73953e-19
1.73979e-19
1.74007e-19
1.74037e-19
1.74068e-19
1.74101e-19
1.74135e-19
1.7417e-19
1.74207e-19
1.74245e-19
1.74284e-19
1.74324e-19
1.74366e-19
1.74409e-19
1.74454e-19
1.745e-19
1.74548e-19
1.74599e-19
1.74653e-19
1.7471e-19
1.74775e-19
1.74853e-19
1.74965e-19
1.75171e-19
1.75611e-19
1.76522e-19
1.78453e-19
1.73128e-19
1.73268e-19
1.73371e-19
1.7346e-19
1.73534e-19
1.73594e-19
1.73642e-19
1.73682e-19
1.73717e-19
1.73748e-19
1.73778e-19
1.73807e-19
1.73836e-19
1.73865e-19
1.73895e-19
1.73926e-19
1.73958e-19
1.73991e-19
1.74025e-19
1.7406e-19
1.74096e-19
1.74133e-19
1.74171e-19
1.7421e-19
1.74251e-19
1.74293e-19
1.74336e-19
1.74382e-19
1.74429e-19
1.74479e-19
1.74531e-19
1.74587e-19
1.74647e-19
1.74714e-19
1.74793e-19
1.74904e-19
1.751e-19
1.7552e-19
1.76424e-19
1.78427e-19
1.73122e-19
1.73233e-19
1.73315e-19
1.73389e-19
1.73453e-19
1.73508e-19
1.73557e-19
1.73601e-19
1.7364e-19
1.73677e-19
1.73712e-19
1.73746e-19
1.73779e-19
1.73812e-19
1.73845e-19
1.73878e-19
1.73912e-19
1.73946e-19
1.73981e-19
1.74017e-19
1.74053e-19
1.74091e-19
1.74129e-19
1.74169e-19
1.7421e-19
1.74253e-19
1.74297e-19
1.74344e-19
1.74392e-19
1.74443e-19
1.74497e-19
1.74554e-19
1.74617e-19
1.74686e-19
1.74768e-19
1.7488e-19
1.75072e-19
1.75478e-19
1.7637e-19
1.78409e-19
1.73124e-19
1.73216e-19
1.73289e-19
1.73356e-19
1.73417e-19
1.73471e-19
1.73521e-19
1.73567e-19
1.73609e-19
1.73649e-19
1.73686e-19
1.73722e-19
1.73758e-19
1.73792e-19
1.73827e-19
1.73861e-19
1.73896e-19
1.7393e-19
1.73966e-19
1.74002e-19
1.74039e-19
1.74077e-19
1.74116e-19
1.74156e-19
1.74197e-19
1.74241e-19
1.74286e-19
1.74333e-19
1.74382e-19
1.74434e-19
1.74489e-19
1.74548e-19
1.74612e-19
1.74683e-19
1.74769e-19
1.74887e-19
1.75087e-19
1.75494e-19
1.76369e-19
1.78269e-19
2.71259e-19
2.74606e-19
2.75951e-19
2.76536e-19
2.76816e-19
2.76987e-19
2.77115e-19
2.77224e-19
2.77322e-19
2.77413e-19
2.77498e-19
2.77579e-19
2.77655e-19
2.77729e-19
2.77799e-19
2.77866e-19
2.77931e-19
2.77995e-19
2.78056e-19
2.78116e-19
2.78174e-19
2.78231e-19
2.78287e-19
2.78343e-19
2.78398e-19
2.78453e-19
2.78508e-19
2.78564e-19
2.78621e-19
2.78679e-19
2.7874e-19
2.78804e-19
2.78872e-19
2.78946e-19
2.79025e-19
2.79113e-19
2.7921e-19
2.79318e-19
2.79438e-19
2.79601e-19
2.70466e-19
7.95754e-19
8.88538e-19
8.96272e-19
8.95656e-19
8.94836e-19
8.94408e-19
8.94344e-19
8.94386e-19
8.9454e-19
8.94788e-19
8.9503e-19
8.95254e-19
8.95525e-19
8.95769e-19
8.96002e-19
8.96233e-19
8.96438e-19
8.96614e-19
8.96756e-19
8.96826e-19
8.96843e-19
8.96779e-19
8.96402e-19
8.9582e-19
8.95111e-19
8.94338e-19
8.93606e-19
8.93188e-19
8.9318e-19
8.93931e-19
8.96576e-19
9.01044e-19
9.04704e-19
9.09279e-19
9.14508e-19
9.17372e-19
9.09484e-19
7.99406e-19
2.79634e-19
2.70466e-19
9.09618e-19
1.02147e-18
1.02764e-18
1.02664e-18
1.02645e-18
1.02643e-18
1.02663e-18
1.02686e-18
1.02714e-18
1.02747e-18
1.02768e-18
1.02792e-18
1.02823e-18
1.02849e-18
1.02873e-18
1.02899e-18
1.02922e-18
1.02943e-18
1.02962e-18
1.02974e-18
1.0298e-18
1.02991e-18
1.02996e-18
1.02995e-18
1.02992e-18
1.02988e-18
1.02988e-18
1.02993e-18
1.02982e-18
1.03034e-18
1.03206e-18
1.0337e-18
1.03648e-18
1.03891e-18
1.04277e-18
1.04298e-18
1.02656e-18
8.67864e-19
2.79634e-19
2.70466e-19
9.12993e-19
1.03116e-18
1.03577e-18
1.03553e-18
1.03565e-18
1.03584e-18
1.03611e-18
1.03638e-18
1.03667e-18
1.03697e-18
1.03724e-18
1.03753e-18
1.03779e-18
1.03799e-18
1.03821e-18
1.03853e-18
1.0388e-18
1.03904e-18
1.03923e-18
1.03939e-18
1.03953e-18
1.03977e-18
1.03992e-18
1.04005e-18
1.04013e-18
1.04014e-18
1.04005e-18
1.03971e-18
1.03914e-18
1.03963e-18
1.03992e-18
1.04104e-18
1.04358e-18
1.04402e-18
1.04829e-18
1.04802e-18
1.03099e-18
8.70019e-19
2.79634e-19
2.70466e-19
9.07786e-19
1.02959e-18
1.0324e-18
1.03498e-18
1.03515e-18
1.03559e-18
1.0359e-18
1.0362e-18
1.03649e-18
1.03678e-18
1.03705e-18
1.03733e-18
1.03761e-18
1.03788e-18
1.0382e-18
1.03851e-18
1.03884e-18
1.03906e-18
1.03922e-18
1.03939e-18
1.0397e-18
1.03994e-18
1.04012e-18
1.04027e-18
1.04032e-18
1.04027e-18
1.0398e-18
1.03898e-18
1.03848e-18
1.03838e-18
1.03748e-18
1.03625e-18
1.04082e-18
1.04236e-18
1.04534e-18
1.04759e-18
1.02873e-18
8.69093e-19
2.79634e-19
2.70465e-19
8.99618e-19
1.02414e-18
1.03246e-18
1.03272e-18
1.03435e-18
1.03448e-18
1.03495e-18
1.03527e-18
1.0356e-18
1.03589e-18
1.03618e-18
1.03648e-18
1.03676e-18
1.03704e-18
1.03735e-18
1.03765e-18
1.03797e-18
1.03826e-18
1.03851e-18
1.03875e-18
1.03905e-18
1.03928e-18
1.03946e-18
1.03959e-18
1.03958e-18
1.03948e-18
1.03887e-18
1.03807e-18
1.03753e-18
1.03663e-18
1.0342e-18
1.03399e-18
1.03418e-18
1.03995e-18
1.04064e-18
1.04537e-18
1.02779e-18
8.68326e-19
2.79634e-19
2.70465e-19
8.93285e-19
1.02031e-18
1.03197e-18
1.03256e-18
1.03271e-18
1.03331e-18
1.0339e-18
1.03431e-18
1.03466e-18
1.03497e-18
1.03526e-18
1.03555e-18
1.03584e-18
1.03613e-18
1.03643e-18
1.03674e-18
1.03705e-18
1.03736e-18
1.03766e-18
1.03796e-18
1.03822e-18
1.03845e-18
1.03862e-18
1.03887e-18
1.03882e-18
1.03856e-18
1.038e-18
1.03718e-18
1.0362e-18
1.03502e-18
1.03207e-18
1.03303e-18
1.03173e-18
1.03444e-18
1.03723e-18
1.04143e-18
1.02591e-18
8.68148e-19
2.79634e-19
2.70465e-19
8.88932e-19
1.01781e-18
1.02782e-18
1.03038e-18
1.03105e-18
1.03212e-18
1.03289e-18
1.03337e-18
1.03375e-18
1.03407e-18
1.03436e-18
1.03464e-18
1.03493e-18
1.03521e-18
1.0355e-18
1.0358e-18
1.03611e-18
1.03642e-18
1.03674e-18
1.03706e-18
1.03732e-18
1.03757e-18
1.03773e-18
1.03795e-18
1.03797e-18
1.03773e-18
1.03714e-18
1.03632e-18
1.03513e-18
1.03391e-18
1.03188e-18
1.03031e-18
1.02957e-18
1.03079e-18
1.03337e-18
1.03844e-18
1.02465e-18
8.68444e-19
2.79634e-19
2.70465e-19
8.85126e-19
1.01469e-18
1.02456e-18
1.02865e-18
1.03109e-18
1.03165e-18
1.03206e-18
1.03253e-18
1.03291e-18
1.03322e-18
1.0335e-18
1.03377e-18
1.03404e-18
1.03431e-18
1.03459e-18
1.03488e-18
1.03517e-18
1.03548e-18
1.03579e-18
1.03611e-18
1.03639e-18
1.03664e-18
1.03684e-18
1.03693e-18
1.03703e-18
1.03691e-18
1.03639e-18
1.03556e-18
1.03433e-18
1.03296e-18
1.03129e-18
1.02892e-18
1.02794e-18
1.02809e-18
1.03029e-18
1.03482e-18
1.0237e-18
8.69215e-19
2.79634e-19
2.70465e-19
8.8232e-19
1.01324e-18
1.02432e-18
1.02766e-18
1.02928e-18
1.03099e-18
1.0314e-18
1.03171e-18
1.03214e-18
1.03244e-18
1.0327e-18
1.03295e-18
1.03322e-18
1.03346e-18
1.03372e-18
1.03399e-18
1.03427e-18
1.03456e-18
1.03485e-18
1.03516e-18
1.03544e-18
1.03569e-18
1.03588e-18
1.03597e-18
1.03614e-18
1.03601e-18
1.03558e-18
1.03481e-18
1.03364e-18
1.03229e-18
1.03072e-18
1.02808e-18
1.02673e-18
1.02615e-18
1.02748e-18
1.03055e-18
1.02314e-18
8.70364e-19
2.79633e-19
2.70465e-19
8.79876e-19
1.01169e-18
1.02307e-18
1.02603e-18
1.02826e-18
1.02985e-18
1.03082e-18
1.0311e-18
1.03154e-18
1.0318e-18
1.03196e-18
1.0322e-18
1.03246e-18
1.03268e-18
1.03292e-18
1.03317e-18
1.03342e-18
1.03368e-18
1.03396e-18
1.03424e-18
1.03452e-18
1.03476e-18
1.03495e-18
1.03505e-18
1.03522e-18
1.03513e-18
1.03477e-18
1.03408e-18
1.03306e-18
1.03158e-18
1.03035e-18
1.02772e-18
1.02633e-18
1.02569e-18
1.02603e-18
1.02739e-18
1.02228e-18
8.72103e-19
2.79633e-19
2.70465e-19
8.77971e-19
1.01069e-18
1.02251e-18
1.02574e-18
1.02811e-18
1.02931e-18
1.02997e-18
1.03069e-18
1.0309e-18
1.03113e-18
1.03136e-18
1.03161e-18
1.03184e-18
1.03199e-18
1.0322e-18
1.03243e-18
1.03265e-18
1.03289e-18
1.03313e-18
1.03339e-18
1.03364e-18
1.03388e-18
1.03407e-18
1.03422e-18
1.0343e-18
1.03425e-18
1.03396e-18
1.03335e-18
1.03251e-18
1.03066e-18
1.03018e-18
1.02745e-18
1.02586e-18
1.02482e-18
1.02552e-18
1.02728e-18
1.02085e-18
8.73887e-19
2.79633e-19
2.70465e-19
8.7588e-19
1.00991e-18
1.02214e-18
1.02559e-18
1.02755e-18
1.02849e-18
1.02941e-18
1.03e-18
1.03032e-18
1.03055e-18
1.03086e-18
1.03107e-18
1.03123e-18
1.03142e-18
1.03161e-18
1.03181e-18
1.03198e-18
1.03219e-18
1.0324e-18
1.03262e-18
1.03285e-18
1.03306e-18
1.03326e-18
1.0334e-18
1.03345e-18
1.03343e-18
1.03318e-18
1.03265e-18
1.03196e-18
1.03038e-18
1.0297e-18
1.02745e-18
1.02592e-18
1.02514e-18
1.02489e-18
1.02616e-18
1.01946e-18
8.75554e-19
2.79633e-19
2.70465e-19
8.74133e-19
1.00922e-18
1.02164e-18
1.0249e-18
1.02665e-18
1.02791e-18
1.0289e-18
1.02949e-18
1.02987e-18
1.03014e-18
1.03039e-18
1.03058e-18
1.03072e-18
1.03094e-18
1.0311e-18
1.03125e-18
1.03142e-18
1.03159e-18
1.03177e-18
1.03196e-18
1.03215e-18
1.03233e-18
1.03253e-18
1.03263e-18
1.03271e-18
1.03269e-18
1.03248e-18
1.03202e-18
1.0314e-18
1.03048e-18
1.02906e-18
1.02735e-18
1.02585e-18
1.02493e-18
1.02516e-18
1.02615e-18
1.01885e-18
8.77572e-19
2.79633e-19
2.70465e-19
8.72817e-19
1.00863e-18
1.02119e-18
1.02438e-18
1.02616e-18
1.02759e-18
1.02857e-18
1.02908e-18
1.02948e-18
1.02977e-18
1.03001e-18
1.0302e-18
1.03036e-18
1.03052e-18
1.03066e-18
1.03078e-18
1.03095e-18
1.03108e-18
1.03123e-18
1.0314e-18
1.03156e-18
1.03172e-18
1.03188e-18
1.03197e-18
1.03204e-18
1.03203e-18
1.03186e-18
1.03149e-18
1.03092e-18
1.03023e-18
1.02888e-18
1.02746e-18
1.02612e-18
1.02533e-18
1.02578e-18
1.02596e-18
1.01806e-18
8.79355e-19
2.79633e-19
2.70465e-19
8.7179e-19
1.00808e-18
1.02075e-18
1.02391e-18
1.02583e-18
1.02723e-18
1.02801e-18
1.02866e-18
1.02911e-18
1.02944e-18
1.02969e-18
1.02988e-18
1.03004e-18
1.03018e-18
1.0303e-18
1.03042e-18
1.03055e-18
1.03067e-18
1.03079e-18
1.03093e-18
1.03106e-18
1.0312e-18
1.03131e-18
1.03141e-18
1.03147e-18
1.03146e-18
1.03133e-18
1.03104e-18
1.03048e-18
1.03e-18
1.02881e-18
1.02759e-18
1.02629e-18
1.02535e-18
1.02584e-18
1.02654e-18
1.01811e-18
8.81309e-19
2.79633e-19
2.70465e-19
8.7091e-19
1.00748e-18
1.02018e-18
1.02328e-18
1.02522e-18
1.02652e-18
1.02743e-18
1.02821e-18
1.02873e-18
1.02911e-18
1.02939e-18
1.0296e-18
1.02976e-18
1.02989e-18
1.03e-18
1.03011e-18
1.03022e-18
1.03032e-18
1.03042e-18
1.03053e-18
1.03064e-18
1.03075e-18
1.03085e-18
1.03094e-18
1.03099e-18
1.03098e-18
1.03087e-18
1.03064e-18
1.03016e-18
1.02968e-18
1.02873e-18
1.02788e-18
1.02679e-18
1.02585e-18
1.02586e-18
1.02719e-18
1.01888e-18
8.82789e-19
2.79633e-19
2.70465e-19
8.70031e-19
1.0068e-18
1.0195e-18
1.0225e-18
1.02441e-18
1.0258e-18
1.0269e-18
1.02775e-18
1.02835e-18
1.02879e-18
1.0291e-18
1.02932e-18
1.02949e-18
1.02963e-18
1.02974e-18
1.02984e-18
1.02993e-18
1.03002e-18
1.03011e-18
1.0302e-18
1.03029e-18
1.03039e-18
1.03047e-18
1.03055e-18
1.0306e-18
1.0306e-18
1.03053e-18
1.03037e-18
1.03011e-18
1.02966e-18
1.02889e-18
1.02778e-18
1.02682e-18
1.0263e-18
1.02637e-18
1.02724e-18
1.01947e-18
8.84957e-19
2.79633e-19
2.70464e-19
8.69263e-19
1.00602e-18
1.0187e-18
1.0216e-18
1.02354e-18
1.02506e-18
1.02628e-18
1.02724e-18
1.02793e-18
1.02844e-18
1.02879e-18
1.02905e-18
1.02923e-18
1.02938e-18
1.02949e-18
1.02958e-18
1.02966e-18
1.02974e-18
1.02983e-18
1.02991e-18
1.02999e-18
1.03007e-18
1.03014e-18
1.03021e-18
1.03026e-18
1.03027e-18
1.03023e-18
1.03009e-18
1.02985e-18
1.02945e-18
1.02882e-18
1.02802e-18
1.02725e-18
1.02673e-18
1.02677e-18
1.02735e-18
1.01975e-18
8.86454e-19
2.79633e-19
2.70464e-19
8.67785e-19
1.00532e-18
1.01783e-18
1.0206e-18
1.02256e-18
1.02419e-18
1.02557e-18
1.02666e-18
1.02746e-18
1.02804e-18
1.02845e-18
1.02874e-18
1.02895e-18
1.02911e-18
1.02923e-18
1.02932e-18
1.0294e-18
1.02948e-18
1.02956e-18
1.02964e-18
1.02971e-18
1.02979e-18
1.02986e-18
1.02993e-18
1.02998e-18
1.02998e-18
1.02995e-18
1.02986e-18
1.02967e-18
1.02934e-18
1.02886e-18
1.02822e-18
1.02758e-18
1.02716e-18
1.02723e-18
1.02776e-18
1.02014e-18
8.87573e-19
2.79633e-19
2.70464e-19
8.66482e-19
1.00425e-18
1.01685e-18
1.01949e-18
1.02147e-18
1.0232e-18
1.02473e-18
1.02599e-18
1.02692e-18
1.0276e-18
1.02807e-18
1.02839e-18
1.02863e-18
1.02882e-18
1.02895e-18
1.02905e-18
1.02913e-18
1.02922e-18
1.0293e-18
1.02937e-18
1.02945e-18
1.02952e-18
1.02959e-18
1.02966e-18
1.02971e-18
1.02973e-18
1.02971e-18
1.02964e-18
1.0295e-18
1.02924e-18
1.02886e-18
1.02836e-18
1.02784e-18
1.0275e-18
1.02755e-18
1.02794e-18
1.0204e-18
8.8867e-19
2.79633e-19
2.70464e-19
8.65294e-19
1.00338e-18
1.01568e-18
1.01825e-18
1.02024e-18
1.02206e-18
1.02383e-18
1.02533e-18
1.02634e-18
1.0271e-18
1.02763e-18
1.02801e-18
1.02828e-18
1.02847e-18
1.02862e-18
1.02874e-18
1.02884e-18
1.02892e-18
1.02901e-18
1.02909e-18
1.02917e-18
1.02924e-18
1.02932e-18
1.02938e-18
1.02944e-18
1.02947e-18