/*--------------------------------*- C++ -*----------------------------------*\
  =========                 |
  \\      /  F ield         | OpenFOAM: The Open Source CFD Toolbox
   \\    /   O peration     | Website:  https://openfoam.org
    \\  /    A nd           | Version:  12
     \\/     M anipulation  |
\*---------------------------------------------------------------------------*/
FoamFile
{
    format      ascii;
    class       volScalarField;
    location    "450";
    object      omega;
}
// * * * * * * * * * * * * * * * * * * * * * * * * * * * * * * * * * * * * * //

dimensions      [0 0 -1 0 0 0 0];

internalField   nonuniform List<scalar> 
8000
(
1277.88
1264.31
1257.94
1254.96
1253.52
1252.68
1252.07
1251.57
1251.12
1250.7
1250.32
1249.95
1249.61
1249.27
1248.96
1248.65
1248.36
1248.07
1247.8
1247.53
1247.27
1247.01
1246.76
1246.51
1246.26
1246.02
1245.77
1245.53
1245.27
1245.02
1244.74
1244.46
1244.16
1243.83
1243.47
1243.07
1242.63
1242.14
1241.6
1240.92
1278.87
1264.32
1257.83
1254.86
1253.48
1252.67
1252.09
1251.61
1251.17
1250.77
1250.39
1250.03
1249.69
1249.36
1249.05
1248.75
1248.46
1248.18
1247.9
1247.64
1247.38
1247.12
1246.88
1246.63
1246.39
1246.15
1245.92
1245.68
1245.45
1245.21
1244.96
1244.69
1244.41
1244.1
1243.75
1243.35
1242.88
1242.34
1241.73
1240.9
1279
1264.73
1258.15
1255.08
1253.66
1252.87
1252.31
1251.84
1251.42
1251.02
1250.66
1250.31
1249.97
1249.65
1249.34
1249.05
1248.76
1248.48
1248.21
1247.95
1247.69
1247.44
1247.2
1246.97
1246.74
1246.52
1246.31
1246.1
1245.89
1245.69
1245.48
1245.27
1245.03
1244.74
1244.4
1243.97
1243.43
1242.77
1242
1240.95
1279.19
1265.44
1258.82
1255.61
1254.12
1253.31
1252.76
1252.31
1251.9
1251.52
1251.17
1250.83
1250.5
1250.19
1249.88
1249.59
1249.3
1249.03
1248.76
1248.5
1248.24
1248
1247.77
1247.54
1247.33
1247.13
1246.95
1246.77
1246.61
1246.46
1246.3
1246.14
1245.94
1245.68
1245.32
1244.84
1244.19
1243.36
1242.37
1241.02
1279.39
1266.25
1259.68
1256.36
1254.79
1253.96
1253.42
1252.99
1252.6
1252.24
1251.9
1251.57
1251.25
1250.94
1250.64
1250.35
1250.07
1249.79
1249.53
1249.27
1249.02
1248.78
1248.55
1248.33
1248.14
1247.96
1247.8
1247.66
1247.54
1247.43
1247.32
1247.2
1247.03
1246.78
1246.39
1245.83
1245.05
1244.02
1242.78
1241.1
1279.6
1267.11
1260.63
1257.23
1255.6
1254.76
1254.23
1253.82
1253.46
1253.12
1252.8
1252.49
1252.18
1251.88
1251.58
1251.3
1251.02
1250.74
1250.47
1250.21
1249.96
1249.73
1249.5
1249.3
1249.11
1248.95
1248.81
1248.7
1248.6
1248.53
1248.45
1248.35
1248.19
1247.93
1247.5
1246.84
1245.91
1244.68
1243.19
1241.17
1279.8
1267.97
1261.63
1258.19
1256.51
1255.65
1255.14
1254.75
1254.42
1254.11
1253.81
1253.51
1253.22
1252.93
1252.64
1252.36
1252.09
1251.81
1251.55
1251.29
1251.04
1250.8
1250.58
1250.37
1250.19
1250.04
1249.91
1249.81
1249.74
1249.68
1249.61
1249.52
1249.36
1249.07
1248.58
1247.83
1246.76
1245.33
1243.6
1241.25
1279.99
1268.81
1262.64
1259.19
1257.45
1256.58
1256.08
1255.72
1255.42
1255.14
1254.86
1254.59
1254.31
1254.04
1253.77
1253.49
1253.23
1252.96
1252.69
1252.44
1252.19
1251.95
1251.73
1251.52
1251.34
1251.19
1251.06
1250.96
1250.89
1250.84
1250.77
1250.67
1250.49
1250.17
1249.63
1248.78
1247.57
1245.95
1244
1241.32
1280.17
1269.61
1263.64
1260.19
1258.42
1257.52
1257.03
1256.69
1256.41
1256.16
1255.91
1255.66
1255.41
1255.15
1254.9
1254.64
1254.38
1254.12
1253.87
1253.61
1253.37
1253.13
1252.9
1252.7
1252.51
1252.35
1252.22
1252.12
1252.04
1251.98
1251.9
1251.78
1251.59
1251.22
1250.62
1249.68
1248.34
1246.56
1244.38
1241.39
1280.34
1270.36
1264.59
1261.16
1259.36
1258.45
1257.94
1257.62
1257.37
1257.14
1256.92
1256.69
1256.47
1256.23
1256
1255.75
1255.51
1255.26
1255.02
1254.77
1254.53
1254.3
1254.07
1253.87
1253.68
1253.51
1253.37
1253.26
1253.17
1253.09
1252.99
1252.85
1252.62
1252.22
1251.56
1250.54
1249.08
1247.13
1244.74
1241.46
1280.49
1271.07
1265.5
1262.11
1260.28
1259.33
1258.82
1258.5
1258.26
1258.05
1257.85
1257.65
1257.45
1257.24
1257.02
1256.8
1256.58
1256.35
1256.11
1255.88
1255.65
1255.42
1255.2
1254.99
1254.8
1254.63
1254.48
1254.36
1254.25
1254.15
1254.03
1253.86
1253.6
1253.16
1252.45
1251.35
1249.78
1247.68
1245.09
1241.53
1280.63
1271.73
1266.35
1263
1261.14
1260.16
1259.63
1259.3
1259.07
1258.88
1258.7
1258.52
1258.34
1258.15
1257.96
1257.76
1257.55
1257.34
1257.13
1256.91
1256.69
1256.48
1256.26
1256.06
1255.87
1255.7
1255.54
1255.4
1255.27
1255.15
1255.01
1254.82
1254.52
1254.04
1253.28
1252.12
1250.45
1248.2
1245.42
1241.59
1280.75
1272.33
1267.15
1263.84
1261.95
1260.93
1260.37
1260.03
1259.8
1259.62
1259.45
1259.29
1259.13
1258.96
1258.79
1258.61
1258.42
1258.23
1258.04
1257.84
1257.64
1257.44
1257.24
1257.05
1256.86
1256.68
1256.52
1256.37
1256.23
1256.09
1255.93
1255.71
1255.38
1254.87
1254.06
1252.83
1251.07
1248.7
1245.75
1241.66
1280.87
1272.89
1267.9
1264.62
1262.71
1261.64
1261.04
1260.68
1260.44
1260.26
1260.1
1259.95
1259.8
1259.66
1259.5
1259.35
1259.19
1259.02
1258.84
1258.67
1258.48
1258.3
1258.12
1257.93
1257.76
1257.59
1257.42
1257.27
1257.12
1256.96
1256.77
1256.53
1256.18
1255.63
1254.78
1253.5
1251.67
1249.18
1246.06
1241.72
1280.97
1273.4
1268.58
1265.35
1263.41
1262.29
1261.65
1261.26
1261
1260.81
1260.66
1260.52
1260.38
1260.25
1260.11
1259.98
1259.83
1259.69
1259.53
1259.38
1259.22
1259.05
1258.88
1258.72
1258.55
1258.39
1258.23
1258.08
1257.92
1257.75
1257.55
1257.28
1256.9
1256.33
1255.45
1254.13
1252.23
1249.63
1246.36
1241.77
1281.07
1273.87
1269.22
1266.03
1264.05
1262.89
1262.2
1261.78
1261.5
1261.29
1261.13
1261
1260.87
1260.75
1260.63
1260.51
1260.38
1260.25
1260.12
1259.98
1259.84
1259.7
1259.55
1259.4
1259.25
1259.09
1258.94
1258.79
1258.63
1258.45
1258.24
1257.96
1257.57
1256.97
1256.07
1254.72
1252.76
1250.07
1246.65
1241.83
1281.16
1274.3
1269.81
1266.66
1264.66
1263.44
1262.7
1262.24
1261.93
1261.72
1261.55
1261.41
1261.29
1261.17
1261.06
1260.95
1260.84
1260.73
1260.61
1260.49
1260.37
1260.24
1260.11
1259.98
1259.84
1259.7
1259.56
1259.41
1259.25
1259.08
1258.86
1258.57
1258.16
1257.56
1256.64
1255.27
1253.28
1250.5
1246.94
1241.89
1281.24
1274.7
1270.35
1267.25
1265.22
1263.96
1263.17
1262.67
1262.34
1262.1
1261.92
1261.78
1261.65
1261.54
1261.44
1261.33
1261.23
1261.13
1261.03
1260.92
1260.81
1260.7
1260.59
1260.47
1260.34
1260.22
1260.09
1259.95
1259.8
1259.62
1259.4
1259.11
1258.7
1258.09
1257.18
1255.8
1253.77
1250.93
1247.23
1241.95
1281.31
1275.07
1270.86
1267.8
1265.75
1264.45
1263.62
1263.08
1262.72
1262.46
1262.27
1262.12
1261.99
1261.88
1261.78
1261.68
1261.58
1261.48
1261.39
1261.29
1261.19
1261.09
1260.99
1260.88
1260.77
1260.66
1260.54
1260.41
1260.26
1260.09
1259.87
1259.59
1259.18
1258.58
1257.68
1256.31
1254.26
1251.36
1247.53
1242
1281.38
1275.41
1271.35
1268.33
1266.27
1264.93
1264.06
1263.48
1263.1
1262.83
1262.62
1262.46
1262.33
1262.21
1262.1
1262
1261.91
1261.81
1261.72
1261.62
1261.53
1261.44
1261.34
1261.24
1261.14
1261.04
1260.93
1260.8
1260.67
1260.5
1260.3
1260.02
1259.62
1259.04
1258.15
1256.8
1254.75
1251.79
1247.83
1242.06
1281.44
1275.74
1271.81
1268.84
1266.78
1265.4
1264.5
1263.9
1263.5
1263.21
1262.99
1262.82
1262.68
1262.56
1262.44
1262.34
1262.24
1262.14
1262.04
1261.95
1261.85
1261.76
1261.67
1261.57
1261.48
1261.38
1261.27
1261.16
1261.03
1260.87
1260.67
1260.41
1260.03
1259.47
1258.62
1257.29
1255.24
1252.23
1248.15
1242.13
1281.51
1276.05
1272.25
1269.34
1267.28
1265.89
1264.97
1264.35
1263.93
1263.63
1263.41
1263.23
1263.08
1262.95
1262.82
1262.71
1262.6
1262.49
1262.39
1262.28
1262.19
1262.09
1261.99
1261.9
1261.8
1261.7
1261.6
1261.49
1261.36
1261.22
1261.03
1260.78
1260.43
1259.9
1259.08
1257.78
1255.75
1252.7
1248.49
1242.19
1281.56
1276.35
1272.68
1269.84
1267.8
1266.4
1265.47
1264.84
1264.41
1264.11
1263.88
1263.69
1263.54
1263.39
1263.26
1263.13
1263.01
1262.89
1262.77
1262.66
1262.55
1262.44
1262.34
1262.24
1262.14
1262.04
1261.93
1261.82
1261.7
1261.56
1261.38
1261.15
1260.82
1260.33
1259.55
1258.3
1256.29
1253.19
1248.84
1242.27
1281.62
1276.65
1273.12
1270.35
1268.34
1266.94
1266
1265.38
1264.95
1264.64
1264.42
1264.23
1264.07
1263.91
1263.77
1263.63
1263.49
1263.36
1263.23
1263.1
1262.97
1262.85
1262.74
1262.62
1262.51
1262.4
1262.29
1262.18
1262.06
1261.92
1261.75
1261.53
1261.23
1260.77
1260.04
1258.84
1256.85
1253.72
1249.23
1242.34
1281.68
1276.94
1273.55
1270.87
1268.9
1267.52
1266.59
1265.97
1265.55
1265.26
1265.03
1264.85
1264.68
1264.52
1264.37
1264.22
1264.06
1263.91
1263.76
1263.62
1263.48
1263.34
1263.2
1263.07
1262.95
1262.83
1262.7
1262.58
1262.46
1262.32
1262.16
1261.95
1261.67
1261.25
1260.57
1259.41
1257.46
1254.29
1249.65
1242.43
1281.74
1277.24
1274
1271.41
1269.49
1268.14
1267.23
1266.63
1266.22
1265.94
1265.73
1265.55
1265.39
1265.23
1265.07
1264.9
1264.74
1264.57
1264.4
1264.23
1264.07
1263.91
1263.76
1263.61
1263.47
1263.33
1263.19
1263.06
1262.92
1262.78
1262.62
1262.43
1262.17
1261.78
1261.14
1260.03
1258.11
1254.91
1250.11
1242.52
1281.8
1277.54
1274.45
1271.97
1270.12
1268.82
1267.93
1267.35
1266.97
1266.71
1266.51
1266.34
1266.18
1266.02
1265.86
1265.69
1265.51
1265.33
1265.14
1264.96
1264.77
1264.59
1264.42
1264.25
1264.08
1263.92
1263.77
1263.62
1263.47
1263.32
1263.15
1262.97
1262.72
1262.36
1261.76
1260.71
1258.81
1255.57
1250.61
1242.63
1281.85
1277.84
1274.93
1272.57
1270.79
1269.54
1268.69
1268.14
1267.79
1267.55
1267.37
1267.21
1267.07
1266.91
1266.75
1266.57
1266.39
1266.19
1265.99
1265.79
1265.58
1265.38
1265.19
1264.99
1264.8
1264.62
1264.45
1264.28
1264.11
1263.95
1263.78
1263.58
1263.35
1263.01
1262.45
1261.43
1259.57
1256.29
1251.15
1242.74
1281.92
1278.16
1275.43
1273.19
1271.51
1270.31
1269.51
1269
1268.67
1268.46
1268.3
1268.16
1268.03
1267.89
1267.73
1267.55
1267.36
1267.16
1266.94
1266.72
1266.5
1266.28
1266.07
1265.85
1265.64
1265.44
1265.24
1265.05
1264.86
1264.67
1264.49
1264.29
1264.05
1263.72
1263.19
1262.22
1260.38
1257.07
1251.74
1242.86
1281.98
1278.49
1275.94
1273.85
1272.27
1271.14
1270.39
1269.91
1269.62
1269.43
1269.3
1269.18
1269.07
1268.93
1268.78
1268.61
1268.42
1268.21
1267.99
1267.76
1267.52
1267.28
1267.05
1266.81
1266.58
1266.36
1266.13
1265.92
1265.71
1265.5
1265.29
1265.08
1264.84
1264.51
1264
1263.06
1261.25
1257.9
1252.38
1243
1282.04
1278.84
1276.49
1274.55
1273.07
1272.02
1271.33
1270.89
1270.63
1270.47
1270.35
1270.26
1270.16
1270.04
1269.89
1269.73
1269.54
1269.33
1269.1
1268.86
1268.62
1268.37
1268.12
1267.87
1267.62
1267.37
1267.12
1266.88
1266.65
1266.42
1266.19
1265.95
1265.69
1265.36
1264.86
1263.94
1262.17
1258.79
1253.07
1243.15
1282.11
1279.2
1277.05
1275.28
1273.92
1272.96
1272.32
1271.93
1271.7
1271.56
1271.46
1271.38
1271.29
1271.18
1271.05
1270.88
1270.7
1270.49
1270.26
1270.02
1269.77
1269.51
1269.25
1268.98
1268.72
1268.45
1268.19
1267.93
1267.67
1267.41
1267.15
1266.89
1266.6
1266.26
1265.76
1264.87
1263.12
1259.72
1253.81
1243.31
1282.18
1279.57
1277.64
1276.04
1274.82
1273.95
1273.37
1273.02
1272.81
1272.69
1272.6
1272.53
1272.45
1272.34
1272.21
1272.05
1271.87
1271.66
1271.43
1271.19
1270.94
1270.67
1270.41
1270.13
1269.85
1269.57
1269.29
1269.01
1268.73
1268.45
1268.16
1267.87
1267.55
1267.19
1266.68
1265.81
1264.1
1260.69
1254.59
1243.48
1282.25
1279.96
1278.26
1276.84
1275.76
1274.98
1274.47
1274.15
1273.96
1273.85
1273.76
1273.69
1273.6
1273.49
1273.36
1273.2
1273.02
1272.81
1272.58
1272.34
1272.08
1271.82
1271.54
1271.26
1270.98
1270.69
1270.4
1270.1
1269.8
1269.49
1269.18
1268.85
1268.51
1268.12
1267.59
1266.74
1265.07
1261.67
1255.41
1243.67
1282.33
1280.36
1278.89
1277.67
1276.73
1276.06
1275.61
1275.32
1275.13
1275.01
1274.91
1274.82
1274.72
1274.6
1274.45
1274.29
1274.09
1273.88
1273.65
1273.41
1273.15
1272.89
1272.61
1272.33
1272.04
1271.74
1271.44
1271.13
1270.81
1270.49
1270.15
1269.8
1269.43
1269.01
1268.47
1267.62
1266
1262.65
1256.25
1243.87
1282.4
1280.76
1279.54
1278.52
1277.73
1277.15
1276.75
1276.47
1276.28
1276.14
1276.01
1275.89
1275.76
1275.61
1275.44
1275.26
1275.06
1274.84
1274.6
1274.36
1274.1
1273.83
1273.56
1273.27
1272.98
1272.68
1272.37
1272.05
1271.72
1271.38
1271.03
1270.65
1270.26
1269.81
1269.26
1268.42
1266.86
1263.58
1257.09
1244.07
1282.48
1281.16
1280.18
1279.35
1278.7
1278.2
1277.83
1277.55
1277.34
1277.15
1276.98
1276.82
1276.65
1276.47
1276.27
1276.07
1275.85
1275.62
1275.38
1275.13
1274.87
1274.6
1274.32
1274.04
1273.74
1273.44
1273.13
1272.8
1272.46
1272.11
1271.74
1271.35
1270.93
1270.46
1269.9
1269.08
1267.59
1264.42
1257.89
1244.27
1282.54
1281.51
1280.75
1280.09
1279.54
1279.11
1278.75
1278.45
1278.2
1277.97
1277.75
1277.54
1277.33
1277.11
1276.89
1276.66
1276.43
1276.19
1275.94
1275.68
1275.42
1275.15
1274.87
1274.58
1274.28
1273.97
1273.66
1273.32
1272.98
1272.61
1272.23
1271.83
1271.39
1270.91
1270.33
1269.52
1268.1
1265.07
1258.58
1244.46
1282.59
1281.77
1281.16
1280.62
1280.14
1279.73
1279.37
1279.05
1278.76
1278.49
1278.23
1277.99
1277.74
1277.5
1277.26
1277.01
1276.76
1276.51
1276.26
1276
1275.73
1275.45
1275.17
1274.88
1274.58
1274.27
1273.94
1273.6
1273.25
1272.88
1272.48
1272.07
1271.61
1271.11
1270.51
1269.7
1268.31
1265.37
1258.97
1244.58
1282.57
1281.9
1281.35
1280.86
1280.41
1280.01
1279.64
1279.3
1278.99
1278.7
1278.42
1278.16
1277.9
1277.64
1277.39
1277.14
1276.89
1276.63
1276.37
1276.1
1275.83
1275.56
1275.27
1274.98
1274.67
1274.36
1274.03
1273.68
1273.32
1272.94
1272.54
1272.11
1271.65
1271.13
1270.5
1269.64
1268.2
1265.26
1258.98
1245.56
818.57
808.594
804.652
802.951
802.137
801.642
801.272
800.957
800.674
800.412
800.166
799.934
799.713
799.502
799.3
799.106
798.919
798.737
798.561
798.39
798.223
798.059
797.897
797.738
797.58
797.423
797.265
797.105
796.942
796.775
796.601
796.417
796.223
796.014
795.787
795.537
795.26
794.952
794.613
794.149
820.971
279.037
249.899
247.743
247.913
248.14
248.259
248.276
248.265
248.222
248.153
248.086
248.024
247.949
247.882
247.817
247.753
247.696
247.648
247.609
247.589
247.585
247.602
247.706
247.868
248.064
248.278
248.481
248.598
248.6
248.391
247.658
246.43
245.433
244.198
242.802
242.044
244.143
277.762
794.054
820.971
244.108
217.377
216.073
216.284
216.323
216.328
216.286
216.236
216.177
216.109
216.063
216.014
215.947
215.893
215.844
215.788
215.74
215.696
215.658
215.631
215.619
215.596
215.586
215.587
215.594
215.602
215.603
215.591
215.616
215.506
215.148
214.806
214.23
213.728
212.938
212.894
216.3
255.852
794.054
820.972
243.205
215.334
214.376
214.425
214.402
214.361
214.307
214.25
214.191
214.128
214.073
214.013
213.959
213.918
213.873
213.807
213.75
213.701
213.663
213.63
213.602
213.552
213.522
213.495
213.478
213.475
213.494
213.564
213.68
213.581
213.521
213.292
212.771
212.683
211.817
211.87
215.37
255.218
794.055
820.972
244.6
215.664
215.075
214.541
214.505
214.413
214.35
214.288
214.227
214.168
214.112
214.053
213.996
213.94
213.874
213.812
213.743
213.698
213.665
213.63
213.566
213.516
213.479
213.449
213.44
213.449
213.544
213.715
213.817
213.838
214.024
214.276
213.337
213.021
212.414
211.957
215.844
255.49
794.055
820.972
246.821
216.812
215.064
215.01
214.671
214.643
214.545
214.479
214.413
214.351
214.291
214.23
214.171
214.113
214.051
213.988
213.922
213.862
213.811
213.762
213.701
213.653
213.615
213.588
213.59
213.611
213.736
213.902
214.014
214.199
214.702
214.745
214.706
213.514
213.374
212.408
216.042
255.716
794.055
820.972
248.571
217.624
215.165
215.042
215.011
214.887
214.763
214.678
214.607
214.543
214.481
214.421
214.361
214.301
214.239
214.177
214.112
214.048
213.986
213.924
213.87
213.823
213.789
213.737
213.746
213.801
213.917
214.086
214.288
214.531
215.145
214.944
215.215
214.651
214.074
213.211
216.436
255.768
794.055
820.973
249.788
218.158
216.034
215.499
215.359
215.135
214.974
214.874
214.795
214.73
214.668
214.609
214.551
214.492
214.432
214.37
214.306
214.241
214.176
214.11
214.055
214.005
213.971
213.926
213.923
213.971
214.092
214.263
214.51
214.762
215.185
215.513
215.667
215.412
214.874
213.825
216.703
255.681
794.055
820.973
250.862
218.829
216.721
215.86
215.349
215.232
215.147
215.049
214.97
214.906
214.847
214.791
214.734
214.678
214.62
214.561
214.5
214.437
214.371
214.306
214.248
214.197
214.155
214.136
214.116
214.141
214.247
214.419
214.675
214.959
215.307
215.803
216.01
215.977
215.517
214.574
216.904
255.454
794.056
820.973
251.66
219.144
216.773
216.068
215.727
215.371
215.285
215.22
215.13
215.068
215.014
214.961
214.906
214.855
214.801
214.745
214.688
214.628
214.566
214.503
214.444
214.394
214.353
214.336
214.301
214.326
214.415
214.576
214.817
215.099
215.426
215.98
216.265
216.386
216.107
215.463
217.022
255.117
794.056
820.973
252.359
219.478
217.038
216.41
215.943
215.608
215.406
215.347
215.256
215.201
215.167
215.117
215.063
215.017
214.967
214.916
214.864
214.809
214.752
214.693
214.635
214.586
214.545
214.525
214.49
214.51
214.583
214.726
214.939
215.247
215.504
216.056
216.347
216.483
216.411
216.124
217.205
254.608
794.056
820.974
252.907
219.697
217.156
216.472
215.973
215.723
215.585
215.433
215.39
215.34
215.293
215.241
215.193
215.161
215.118
215.07
215.024
214.974
214.923
214.87
214.817
214.769
214.728
214.698
214.681
214.69
214.752
214.878
215.053
215.439
215.539
216.113
216.447
216.668
216.52
216.147
217.51
254.088
794.056
820.974
253.51
219.866
217.235
216.503
216.091
215.893
215.701
215.578
215.511
215.463
215.397
215.354
215.32
215.28
215.24
215.199
215.164
215.12
215.076
215.03
214.983
214.938
214.897
214.867
214.858
214.861
214.913
215.025
215.167
215.498
215.641
216.113
216.434
216.6
216.653
216.384
217.806
253.605
794.057
820.974
254.017
220.015
217.342
216.65
216.281
216.015
215.808
215.685
215.605
215.547
215.496
215.456
215.426
215.381
215.348
215.317
215.28
215.244
215.207
215.168
215.129
215.09
215.049
215.028
215.012
215.016
215.059
215.154
215.284
215.476
215.774
216.132
216.449
216.643
216.594
216.385
217.936
253.022
794.057
820.974
254.4
220.144
217.436
216.759
216.383
216.082
215.878
215.77
215.686
215.624
215.575
215.535
215.503
215.469
215.44
215.414
215.379
215.351
215.319
215.285
215.252
215.219
215.184
215.166
215.151
215.154
215.189
215.266
215.385
215.529
215.811
216.11
216.392
216.559
216.464
216.426
218.105
252.508
794.057
820.974
254.7
220.264
217.531
216.859
216.453
216.159
215.994
215.859
215.765
215.695
215.643
215.602
215.57
215.54
215.514
215.489
215.463
215.438
215.412
215.384
215.356
215.327
215.303
215.283
215.27
215.272
215.299
215.359
215.477
215.577
215.828
216.084
216.357
216.555
216.451
216.304
218.096
251.949
794.057
820.975
254.957
220.396
217.651
216.994
216.583
216.308
216.115
215.953
215.843
215.763
215.705
215.662
215.629
215.6
215.576
215.554
215.532
215.511
215.488
215.466
215.443
215.42
215.399
215.381
215.37
215.371
215.395
215.443
215.544
215.644
215.843
216.022
216.251
216.449
216.447
216.167
217.93
251.526
794.058
820.975
255.215
220.544
217.797
217.159
216.753
216.46
216.229
216.05
215.923
215.831
215.766
215.719
215.683
215.655
215.631
215.611
215.591
215.573
215.554
215.535
215.516
215.496
215.478
215.462
215.452
215.452
215.466
215.5
215.554
215.649
215.81
216.043
216.246
216.355
216.34
216.156
217.803
250.91
794.058
820.975
255.44
220.717
217.969
217.35
216.938
216.617
216.358
216.157
216.011
215.905
215.831
215.777
215.738
215.708
215.684
215.665
215.648
215.631
215.614
215.597
215.58
215.563
215.547
215.533
215.523
215.521
215.529
215.558
215.608
215.693
215.824
215.992
216.155
216.264
216.256
216.132
217.743
250.486
794.058
820.975
255.875
220.87
218.155
217.563
217.146
216.8
216.509
216.28
216.111
215.988
215.902
215.841
215.797
215.764
215.739
215.72
215.702
215.685
215.67
215.654
215.638
215.622
215.606
215.591
215.582
215.581
215.588
215.607
215.647
215.715
215.817
215.95
216.084
216.173
216.159
216.048
217.66
250.17
794.058
820.976
256.26
221.105
218.366
217.799
217.379
217.009
216.686
216.419
216.223
216.082
215.982
215.914
215.864
215.825
215.797
215.777
215.759
215.742
215.725
215.709
215.693
215.678
215.663
215.649
215.639
215.634
215.637
215.652
215.683
215.737
215.817
215.922
216.03
216.101
216.092
216.01
217.605
249.862
794.058
820.976
256.612
221.296
218.617
218.066
217.639
217.252
216.876
216.56
216.346
216.186
216.074
215.995
215.939
215.898
215.867
215.842
215.821
215.803
215.785
215.768
215.752
215.736
215.721
215.706
215.695
215.689
215.69
215.699
215.722
215.763
215.826
215.914
216
216.05
216.047
215.997
217.59
249.586
794.059
820.976
257.201
221.492
218.77
218.333
217.898
217.477
217.089
216.75
216.48
216.295
216.181
216.09
216.027
215.98
215.945
215.916
215.894
215.873
215.854
215.835
215.817
215.8
215.784
215.77
215.758
215.75
215.748
215.752
215.769
215.8
215.849
215.925
215.961
216.013
216.032
216.013
217.595
249.444
794.059
820.976
257.779
221.761
218.988
218.582
218.157
217.686
217.272
216.955
216.672
216.459
216.319
216.206
216.129
216.076
216.037
216.005
215.98
215.957
215.936
215.916
215.897
215.879
215.861
215.846
215.832
215.822
215.816
215.817
215.827
215.848
215.881
215.913
215.993
216.085
216.082
216.077
217.643
249.308
794.059
820.977
258.334
222.055
219.295
218.76
218.456
217.985
217.537
217.156
216.81
216.633
216.44
216.328
216.242
216.184
216.143
216.108
216.081
216.057
216.035
216.013
215.993
215.972
215.953
215.936
215.92
215.908
215.899
215.896
215.903
215.919
215.951
216
216.08
216.132
216.147
216.169
217.721
249.177
794.059
820.977
258.97
222.154
219.556
219.008
218.672
218.24
217.783
217.376
216.976
216.809
216.593
216.463
216.369
216.307
216.265
216.222
216.198
216.174
216.15
216.127
216.105
216.082
216.063
216.045
216.024
216.012
215.999
215.991
215.995
216.006
216.031
216.075
216.141
216.211
216.244
216.293
217.823
249.025
794.06
820.977
259.574
222.129
219.687
219.34
218.978
218.528
218.046
217.61
217.185
216.96
216.761
216.613
216.511
216.444
216.402
216.356
216.332
216.308
216.284
216.26
216.234
216.211
216.19
216.168
216.143
216.137
216.119
216.104
216.109
216.113
216.131
216.177
216.248
216.333
216.374
216.447
217.942
248.82
794.06
820.977
260.204
222.118
219.915
219.571
219.16
218.771
218.297
217.833
217.411
217.141
216.94
216.776
216.666
216.599
216.548
216.508
216.48
216.456
216.433
216.41
216.385
216.363
216.335
216.309
216.288
216.27
216.252
216.227
216.246
216.239
216.245
216.293
216.369
216.386
216.489
216.606
218.064
248.533
794.06
820.978
260.794
221.971
219.99
219.749
219.411
219.003
218.544
218.021
217.682
217.342
217.131
216.952
216.835
216.763
216.716
216.677
216.646
216.62
216.598
216.575
216.551
216.527
216.501
216.475
216.456
216.421
216.403
216.392
216.38
216.37
216.349
216.424
216.446
216.576
216.774
216.834
218.194
248.271
794.06
820.978
261.413
221.979
219.746
219.728
219.624
219.23
218.8
218.154
218.049
217.543
217.326
217.139
217.016
216.935
216.906
216.859
216.827
216.799
216.777
216.756
216.732
216.708
216.681
216.654
216.629
216.602
216.579
216.572
216.531
216.52
216.542
216.529
216.644
216.821
216.934
216.996
218.279
247.968
794.06
820.978
261.925
222.07
219.292
219.581
219.619
219.376
219.026
218.368
218.262
217.77
217.534
217.343
217.213
217.129
217.102
217.056
217.021
216.993
216.969
216.948
216.926
216.901
216.874
216.846
216.818
216.789
216.762
216.742
216.717
216.705
216.718
216.696
216.681
216.837
216.929
217.075
218.303
247.553
794.061
820.978
262.369
222.111
218.804
219.368
219.527
219.443
219.175
218.668
218.343
218.022
217.762
217.566
217.426
217.338
217.302
217.261
217.225
217.197
217.17
217.15
217.128
217.103
217.076
217.047
217.016
216.985
216.955
216.928
216.901
216.882
216.877
216.884
216.862
216.821
217.043
217.331
218.333
247.039
794.061
820.978
262.695
222.091
218.475
219.048
219.288
219.417
219.23
218.918
218.463
218.249
217.993
217.804
217.653
217.552
217.496
217.475
217.436
217.407
217.379
217.357
217.333
217.308
217.28
217.249
217.217
217.183
217.149
217.116
217.084
217.057
217.042
217.043
217.086
217.148
217.033
216.897
217.999
246.283
794.061
820.979
262.873
222.001
218.2
218.586
218.822
219.288
219.013
219.248
218.618
218.396
218.195
218.026
217.874
217.77
217.697
217.685
217.648
217.617
217.589
217.562
217.533
217.505
217.476
217.445
217.41
217.374
217.336
217.297
217.258
217.221
217.189
217.165
217.165
217.142
216.97
216.477
217.975
245.466
794.061
820.979
262.939
221.843
217.757
218.331
218.342
219.199
219.19
219.179
218.713
218.502
218.381
218.218
218.061
217.976
217.918
217.885
217.848
217.817
217.797
217.756
217.714
217.683
217.655
217.621
217.585
217.545
217.501
217.458
217.411
217.364
217.318
217.267
217.234
217.157
217.13
216.749
217.503
244.087
794.062
820.979
262.866
221.889
217.635
217.755
218.203
218.379
219.218
218.917
218.705
218.659
218.575
218.374
218.244
218.168
218.115
218.077
218.038
218.009
217.991
217.935
217.877
217.832
217.804
217.769
217.732
217.691
217.641
217.592
217.537
217.481
217.421
217.354
217.267
217.188
216.9
217.071
216.742
242.342
794.062
820.979
262.754
221.722
217.828
217.559
218.147
218.168
218.6
218.756
218.779
218.864
218.757
218.617
218.549
218.489
218.437
218.39
218.343
218.312
218.255
218.2
218.148
218.105
218.065
218.024
217.976
217.92
217.861
217.81
217.75
217.689
217.621
217.541
217.445
217.309
217.078
216.57
216.76
241.27
794.062
820.98
263.566
222.923
219.26
219.086
219.646
220.037
220.532
220.791
221.062
221.112
221.05
221
220.935
220.858
220.778
220.699
220.63
220.568
220.492
220.431
220.377
220.326
220.277
220.229
220.177
220.125
220.079
220.015
219.94
219.876
219.802
219.71
219.595
219.406
219.119
218.462
219.044
242.551
794.062
820.98
286.549
252.084
249.727
250.245
251.403
252.419
253.26
254.219
254.847
255.008
254.968
254.784
254.523
254.236
253.959
253.709
253.514
253.396
253.298
253.212
253.142
253.079
253.021
252.966
252.91
252.851
252.795
252.723
252.647
252.561
252.448
252.294
252.09
251.758
251.249
250.56
251.824
277.451
794.062
820.885
820.421
820.08
819.77
819.49
819.236
819.005
818.792
818.593
818.405
818.226
818.054
817.887
817.723
817.56
817.398
817.236
817.071
816.905
816.736
816.563
816.386
816.204
816.016
815.822
815.621
815.411
815.192
814.963
814.722
814.466
814.194
813.901
813.575
813.194
812.69
811.872
810.186
806.307
796.442
818.506
808.342
804.459
802.845
802.079
801.605
801.243
800.932
800.651
800.391
800.146
799.914
799.694
799.484
799.283
799.089
798.902
798.721
798.546
798.374
798.207
798.044
797.882
797.723
797.565
797.407
797.249
797.089
796.925
796.757
796.583
796.4
796.206
795.999
795.773
795.526
795.252
794.947
794.61
794.148
820.971
203.854
163.22
160.291
160.367
160.829
161.116
161.26
161.309
161.31
161.283
161.245
161.2
161.14
161.086
161.033
160.984
160.946
160.922
160.919
160.943
160.984
161.085
161.313
161.658
162.053
162.469
162.85
163.046
163.021
162.519
161.318
159.598
157.87
155.847
153.662
152.726
157.177
207.617
794.054
820.971
152.287
110.655
108.103
107.983
108.033
108.065
108.068
108.051
108.024
107.992
107.963
107.932
107.894
107.862
107.832
107.802
107.778
107.762
107.756
107.758
107.771
107.802
107.856
107.929
108.012
108.093
108.154
108.167
108.119
107.899
107.477
106.945
106.336
105.779
105.41
106.285
114.273
177.49
794.054
820.972
149.188
105.866
103.422
103.264
103.237
103.21
103.181
103.152
103.121
103.09
103.062
103.033
103.005
102.982
102.956
102.927
102.903
102.882
102.866
102.852
102.841
102.829
102.827
102.829
102.837
102.85
102.871
102.904
102.916
102.837
102.762
102.634
102.431
102.376
102.372
103.536
111.989
176.315
794.055
820.972
150.931
105.796
103.174
102.926
102.886
102.845
102.814
102.783
102.753
102.723
102.695
102.667
102.64
102.612
102.582
102.553
102.524
102.502
102.485
102.466
102.441
102.422
102.408
102.397
102.396
102.407
102.456
102.521
102.548
102.574
102.637
102.664
102.352
102.294
102.342
103.436
111.943
176.422
794.055
820.972
153.836
106.279
103.248
103.055
102.949
102.912
102.87
102.837
102.806
102.776
102.748
102.719
102.691
102.663
102.633
102.604
102.574
102.547
102.523
102.499
102.475
102.455
102.438
102.429
102.431
102.445
102.506
102.572
102.629
102.728
102.892
102.902
102.837
102.536
102.632
103.542
111.916
176.383
794.055
820.972
156.449
106.909
103.364
103.135
103.08
103.02
102.967
102.929
102.897
102.867
102.838
102.81
102.782
102.753
102.724
102.694
102.664
102.635
102.607
102.58
102.557
102.537
102.519
102.506
102.508
102.537
102.59
102.664
102.759
102.89
103.075
103.058
103.129
102.966
102.925
103.725
111.842
176.074
794.055
820.973
158.521
107.522
103.669
103.3
103.219
103.129
103.064
103.022
102.987
102.958
102.929
102.902
102.874
102.847
102.819
102.79
102.76
102.73
102.7
102.671
102.648
102.627
102.61
102.596
102.596
102.623
102.674
102.752
102.86
102.983
103.155
103.296
103.355
103.294
103.238
103.864
111.671
175.548
794.055
820.973
160.298
108.148
104.024
103.458
103.248
103.188
103.148
103.106
103.072
103.043
103.017
102.991
102.964
102.938
102.911
102.884
102.855
102.826
102.796
102.767
102.742
102.721
102.703
102.692
102.687
102.703
102.751
102.83
102.941
103.068
103.226
103.43
103.527
103.543
103.499
104.062
111.447
174.83
794.056
820.973
161.674
108.583
104.163
103.585
103.388
103.258
103.217
103.186
103.149
103.122
103.098
103.074
103.049
103.025
103
102.974
102.947
102.92
102.891
102.863
102.837
102.816
102.798
102.787
102.777
102.789
102.831
102.904
103.009
103.134
103.285
103.515
103.645
103.728
103.745
104.31
111.185
173.939
794.056
820.973
162.785
108.973
104.339
103.74
103.506
103.362
103.28
103.25
103.213
103.189
103.172
103.149
103.125
103.104
103.081
103.058
103.034
103.008
102.982
102.955
102.929
102.908
102.89
102.878
102.867
102.876
102.911
102.975
103.069
103.201
103.324
103.552
103.685
103.765
103.868
104.458
110.935
172.954
794.056
820.974
163.651
109.284
104.462
103.812
103.549
103.421
103.357
103.299
103.277
103.255
103.234
103.212
103.191
103.175
103.154
103.133
103.112
103.089
103.065
103.041
103.017
102.996
102.977
102.963
102.956
102.962
102.99
103.046
103.127
103.276
103.349
103.581
103.733
103.843
103.896
104.448
110.703
171.756
794.056
820.974
164.285
109.525
104.551
103.854
103.606
103.498
103.417
103.364
103.335
103.314
103.287
103.268
103.252
103.233
103.216
103.197
103.18
103.16
103.14
103.118
103.097
103.076
103.058
103.045
103.04
103.042
103.066
103.114
103.182
103.309
103.392
103.589
103.739
103.85
103.938
104.46
110.516
170.653
794.057
820.974
165.038