/*--------------------------------*- C++ -*----------------------------------*\
  =========                 |
  \\      /  F ield         | OpenFOAM: The Open Source CFD Toolbox
   \\    /   O peration     | Website:  https://openfoam.org
    \\  /    A nd           | Version:  12
     \\/     M anipulation  |
\*---------------------------------------------------------------------------*/
FoamFile
{
    format      ascii;
    class       volScalarField;
    location    "450";
    object      p_rgh;
}
// * * * * * * * * * * * * * * * * * * * * * * * * * * * * * * * * * * * * * //

dimensions      [1 -1 -2 0 0 0 0];

internalField   nonuniform List<scalar> 
8000
(
-7.77059
-7.7703
-7.77007
-7.76989
-7.76976
-7.76964
-7.76954
-7.76944
-7.76934
-7.76924
-7.76915
-7.76906
-7.76896
-7.76887
-7.76878
-7.76869
-7.7686
-7.76851
-7.76842
-7.76833
-7.76824
-7.76815
-7.76807
-7.76798
-7.7679
-7.76781
-7.76772
-7.76763
-7.76754
-7.76745
-7.76735
-7.76724
-7.76713
-7.76702
-7.7669
-7.76678
-7.76668
-7.76659
-7.76654
-7.76651
-7.77079
-7.77035
-7.77007
-7.76988
-7.76975
-7.76964
-7.76953
-7.76944
-7.76934
-7.76925
-7.76915
-7.76906
-7.76897
-7.76887
-7.76878
-7.76869
-7.7686
-7.76851
-7.76842
-7.76833
-7.76824
-7.76816
-7.76807
-7.76799
-7.7679
-7.76781
-7.76773
-7.76764
-7.76755
-7.76745
-7.76736
-7.76725
-7.76714
-7.76703
-7.76691
-7.7668
-7.76669
-7.7666
-7.76653
-7.7665
-7.77114
-7.77051
-7.77012
-7.76989
-7.76975
-7.76964
-7.76954
-7.76945
-7.76935
-7.76926
-7.76917
-7.76907
-7.76898
-7.76889
-7.7688
-7.76871
-7.76862
-7.76853
-7.76844
-7.76835
-7.76826
-7.76817
-7.76809
-7.768
-7.76792
-7.76783
-7.76775
-7.76766
-7.76757
-7.76748
-7.76739
-7.76729
-7.76719
-7.76708
-7.76696
-7.76684
-7.76672
-7.76662
-7.76653
-7.76647
-7.77159
-7.77076
-7.77023
-7.76995
-7.76979
-7.76967
-7.76957
-7.76948
-7.76939
-7.76929
-7.7692
-7.76911
-7.76902
-7.76893
-7.76884
-7.76875
-7.76865
-7.76856
-7.76848
-7.76839
-7.7683
-7.76821
-7.76813
-7.76804
-7.76796
-7.76788
-7.76779
-7.76771
-7.76763
-7.76755
-7.76746
-7.76737
-7.76727
-7.76716
-7.76705
-7.76691
-7.76678
-7.76665
-7.76653
-7.76643
-7.77209
-7.77107
-7.77041
-7.77006
-7.76987
-7.76974
-7.76964
-7.76955
-7.76946
-7.76936
-7.76927
-7.76918
-7.76909
-7.769
-7.76891
-7.76882
-7.76873
-7.76864
-7.76855
-7.76846
-7.76837
-7.76828
-7.7682
-7.76811
-7.76803
-7.76795
-7.76788
-7.7678
-7.76773
-7.76765
-7.76757
-7.76749
-7.7674
-7.76729
-7.76717
-7.76702
-7.76686
-7.76669
-7.76652
-7.76637
-7.77262
-7.77143
-7.77064
-7.77021
-7.76998
-7.76984
-7.76974
-7.76965
-7.76956
-7.76947
-7.76938
-7.76929
-7.7692
-7.76911
-7.76902
-7.76893
-7.76884
-7.76875
-7.76866
-7.76857
-7.76848
-7.76839
-7.76831
-7.76823
-7.76815
-7.76807
-7.768
-7.76793
-7.76786
-7.76779
-7.76772
-7.76765
-7.76756
-7.76746
-7.76732
-7.76716
-7.76696
-7.76674
-7.76651
-7.76629
-7.77316
-7.77182
-7.77091
-7.7704
-7.77013
-7.76998
-7.76988
-7.76979
-7.7697
-7.76961
-7.76953
-7.76944
-7.76935
-7.76926
-7.76917
-7.76908
-7.76899
-7.7689
-7.76881
-7.76872
-7.76863
-7.76854
-7.76846
-7.76837
-7.7683
-7.76822
-7.76815
-7.76809
-7.76803
-7.76796
-7.7679
-7.76783
-7.76775
-7.76764
-7.7675
-7.76731
-7.76707
-7.76679
-7.7665
-7.7662
-7.77371
-7.77224
-7.77122
-7.77063
-7.77032
-7.77015
-7.77004
-7.76995
-7.76987
-7.76978
-7.7697
-7.76962
-7.76953
-7.76944
-7.76935
-7.76926
-7.76917
-7.76908
-7.76899
-7.7689
-7.76881
-7.76873
-7.76864
-7.76856
-7.76848
-7.76841
-7.76834
-7.76828
-7.76822
-7.76817
-7.76811
-7.76804
-7.76796
-7.76784
-7.76768
-7.76747
-7.76719
-7.76685
-7.76647
-7.76608
-7.77425
-7.77267
-7.77155
-7.77089
-7.77054
-7.77035
-7.77023
-7.77014
-7.77006
-7.76998
-7.7699
-7.76982
-7.76974
-7.76965
-7.76956
-7.76948
-7.76939
-7.7693
-7.76921
-7.76912
-7.76903
-7.76894
-7.76886
-7.76877
-7.7687
-7.76863
-7.76856
-7.7685
-7.76844
-7.76839
-7.76833
-7.76826
-7.76818
-7.76806
-7.76788
-7.76764
-7.76731
-7.7669
-7.76644
-7.76594
-7.77479
-7.77312
-7.77191
-7.77118
-7.77078
-7.77057
-7.77044
-7.77035
-7.77027
-7.77019
-7.77012
-7.77004
-7.76996
-7.76988
-7.76979
-7.76971
-7.76962
-7.76953
-7.76945
-7.76936
-7.76927
-7.76918
-7.7691
-7.76902
-7.76894
-7.76887
-7.7688
-7.76874
-7.76868
-7.76863
-7.76857
-7.7685
-7.76841
-7.76828
-7.76809
-7.76781
-7.76743
-7.76695
-7.76639
-7.76579
-7.77531
-7.77357
-7.77228
-7.77148
-7.77104
-7.7708
-7.77066
-7.77056
-7.77048
-7.77041
-7.77034
-7.77026
-7.77019
-7.77011
-7.77003
-7.76995
-7.76987
-7.76978
-7.7697
-7.76961
-7.76953
-7.76944
-7.76936
-7.76927
-7.7692
-7.76912
-7.76906
-7.76899
-7.76894
-7.76888
-7.76882
-7.76875
-7.76865
-7.76851
-7.76829
-7.76798
-7.76755
-7.76699
-7.76633
-7.76561
-7.77583
-7.77402
-7.77265
-7.77179
-7.7713
-7.77104
-7.77088
-7.77078
-7.7707
-7.77063
-7.77056
-7.77049
-7.77042
-7.77035
-7.77027
-7.77019
-7.77012
-7.77004
-7.76995
-7.76987
-7.76979
-7.76971
-7.76962
-7.76954
-7.76947
-7.76939
-7.76933
-7.76926
-7.7692
-7.76914
-7.76908
-7.769
-7.7689
-7.76874
-7.7685
-7.76815
-7.76767
-7.76702
-7.76625
-7.76541
-7.77634
-7.77447
-7.77304
-7.77212
-7.77158
-7.77128
-7.77111
-7.77099
-7.77091
-7.77084
-7.77077
-7.7707
-7.77064
-7.77057
-7.7705
-7.77043
-7.77036
-7.77028
-7.77021
-7.77013
-7.77005
-7.76997
-7.76989
-7.76981
-7.76974
-7.76967
-7.7696
-7.76953
-7.76947
-7.76941
-7.76934
-7.76926
-7.76914
-7.76897
-7.7687
-7.76832
-7.76778
-7.76705
-7.76617
-7.76519
-7.77683
-7.77492
-7.77343
-7.77244
-7.77186
-7.77152
-7.77133
-7.7712
-7.77111
-7.77104
-7.77097
-7.77091
-7.77084
-7.77078
-7.77072
-7.77065
-7.77059
-7.77052
-7.77045
-7.77037
-7.7703
-7.77023
-7.77015
-7.77008
-7.77001
-7.76994
-7.76987
-7.7698
-7.76974
-7.76967
-7.7696
-7.76951
-7.76938
-7.76919
-7.7689
-7.76848
-7.76788
-7.76707
-7.76607
-7.76495
-7.77732
-7.77537
-7.77382
-7.77278
-7.77214
-7.77177
-7.77155
-7.7714
-7.7713
-7.77122
-7.77116
-7.77109
-7.77103
-7.77097
-7.77092
-7.77086
-7.77079
-7.77073
-7.77067
-7.7706
-7.77054
-7.77047
-7.7704
-7.77033
-7.77026
-7.77019
-7.77013
-7.77006
-7.77
-7.76993
-7.76985
-7.76975
-7.76961
-7.76941
-7.7691
-7.76864
-7.76798
-7.76708
-7.76596
-7.76469
-7.77779
-7.77581
-7.77421
-7.77311
-7.77242
-7.77201
-7.77176
-7.77159
-7.77148
-7.7714
-7.77132
-7.77126
-7.7712
-7.77115
-7.77109
-7.77104
-7.77098
-7.77093
-7.77087
-7.77081
-7.77075
-7.77069
-7.77063
-7.77056
-7.7705
-7.77044
-7.77037
-7.77031
-7.77024
-7.77017
-7.77009
-7.76998
-7.76983
-7.76961
-7.76928
-7.76879
-7.76807
-7.76709
-7.76584
-7.76442
-7.77825
-7.77624
-7.7746
-7.77345
-7.7727
-7.77225
-7.77196
-7.77178
-7.77165
-7.77156
-7.77148
-7.77142
-7.77136
-7.77131
-7.77125
-7.7712
-7.77115
-7.7711
-7.77105
-7.771
-7.77094
-7.77089
-7.77083
-7.77077
-7.77072
-7.77066
-7.7706
-7.77054
-7.77047
-7.7704
-7.77032
-7.7702
-7.77005
-7.76981
-7.76946
-7.76893
-7.76816
-7.76709
-7.76571
-7.76413
-7.7787
-7.77667
-7.77499
-7.77378
-7.77299
-7.77249
-7.77217
-7.77196
-7.77182
-7.77171
-7.77163
-7.77156
-7.7715
-7.77145
-7.7714
-7.77135
-7.7713
-7.77126
-7.77121
-7.77116
-7.77111
-7.77107
-7.77102
-7.77096
-7.77091
-7.77086
-7.7708
-7.77075
-7.77068
-7.77061
-7.77052
-7.77041
-7.77024
-7.77
-7.76963
-7.76907
-7.76825
-7.76709
-7.76558
-7.76383
-7.77914
-7.77709
-7.77537
-7.77412
-7.77327
-7.77273
-7.77237
-7.77214
-7.77198
-7.77187
-7.77178
-7.77171
-7.77164
-7.77159
-7.77154
-7.77149
-7.77145
-7.7714
-7.77136
-7.77131
-7.77127
-7.77123
-7.77118
-7.77113
-7.77109
-7.77104
-7.77099
-7.77094
-7.77088
-7.77081
-7.77072
-7.7706
-7.77043
-7.77018
-7.7698
-7.76922
-7.76834
-7.7671
-7.76545
-7.76352
-7.77957
-7.7775
-7.77575
-7.77445
-7.77356
-7.77297
-7.77259
-7.77233
-7.77216
-7.77203
-7.77193
-7.77185
-7.77179
-7.77173
-7.77168
-7.77163
-7.77159
-7.77154
-7.7715
-7.77146
-7.77142
-7.77137
-7.77133
-7.77129
-7.77125
-7.7712
-7.77116
-7.77111
-7.77105
-7.77098
-7.7709
-7.77078
-7.77061
-7.77036
-7.76997
-7.76936
-7.76845
-7.76711
-7.76532
-7.7632
-7.77999
-7.77791
-7.77614
-7.77479
-7.77386
-7.77323
-7.77281
-7.77254
-7.77234
-7.77221
-7.7721
-7.77202
-7.77195
-7.77189
-7.77184
-7.77178
-7.77174
-7.77169
-7.77165
-7.7716
-7.77156
-7.77152
-7.77148
-7.77144
-7.7714
-7.77136
-7.77131
-7.77127
-7.77121
-7.77115
-7.77106
-7.77095
-7.77078
-7.77053
-7.77014
-7.76952
-7.76856
-7.76714
-7.7652
-7.76287
-7.7804
-7.77831
-7.77652
-7.77514
-7.77416
-7.7735
-7.77306
-7.77276
-7.77255
-7.77241
-7.7723
-7.77221
-7.77214
-7.77207
-7.77201
-7.77196
-7.77191
-7.77186
-7.77181
-7.77176
-7.77172
-7.77168
-7.77163
-7.77159
-7.77155
-7.77151
-7.77147
-7.77142
-7.77137
-7.77131
-7.77123
-7.77112
-7.77095
-7.77071
-7.77031
-7.76969
-7.76869
-7.76718
-7.76509
-7.76254
-7.78079
-7.7787
-7.7769
-7.77549
-7.77448
-7.77379
-7.77333
-7.77301
-7.7728
-7.77265
-7.77253
-7.77244
-7.77236
-7.77229
-7.77223
-7.77217
-7.77211
-7.77205
-7.772
-7.77195
-7.7719
-7.77185
-7.77181
-7.77176
-7.77172
-7.77167
-7.77163
-7.77158
-7.77153
-7.77147
-7.77139
-7.77129
-7.77113
-7.77089
-7.77051
-7.76987
-7.76885
-7.76725
-7.765
-7.76221
-7.78117
-7.77909
-7.77728
-7.77586
-7.77482
-7.77411
-7.77362
-7.7733
-7.77308
-7.77292
-7.77281
-7.77272
-7.77264
-7.77256
-7.77249
-7.77243
-7.77236
-7.7723
-7.77223
-7.77217
-7.77212
-7.77206
-7.77201
-7.77196
-7.77191
-7.77186
-7.77181
-7.77177
-7.77171
-7.77165
-7.77158
-7.77148
-7.77133
-7.7711
-7.77072
-7.77009
-7.76903
-7.76735
-7.76492
-7.76188
-7.78154
-7.77948
-7.77767
-7.77623
-7.77518
-7.77445
-7.77395
-7.77363
-7.77341
-7.77325
-7.77314
-7.77305
-7.77296
-7.77289
-7.77281
-7.77274
-7.77267
-7.77259
-7.77252
-7.77245
-7.77239
-7.77232
-7.77226
-7.7722
-7.77214
-7.77209
-7.77203
-7.77198
-7.77193
-7.77186
-7.77179
-7.77169
-7.77155
-7.77134
-7.77097
-7.77034
-7.76925
-7.76748
-7.76487
-7.76154
-7.7819
-7.77985
-7.77806
-7.77662
-7.77557
-7.77482
-7.77433
-7.774
-7.77378
-7.77363
-7.77353
-7.77344
-7.77336
-7.77328
-7.7732
-7.77312
-7.77304
-7.77296
-7.77288
-7.7728
-7.77272
-7.77264
-7.77257
-7.7725
-7.77243
-7.77237
-7.7723
-7.77224
-7.77218
-7.77212
-7.77204
-7.77195
-7.77182
-7.77161
-7.77125
-7.77063
-7.76952
-7.76766
-7.76485
-7.76122
-7.78224
-7.78023
-7.77845
-7.77703
-7.77598
-7.77524
-7.77474
-7.77442
-7.77421
-7.77408
-7.77398
-7.77389
-7.77382
-7.77374
-7.77366
-7.77358
-7.77349
-7.7734
-7.77331
-7.77322
-7.77313
-7.77304
-7.77295
-7.77287
-7.77279
-7.77271
-7.77264
-7.77257
-7.7725
-7.77242
-7.77235
-7.77225
-7.77212
-7.77192
-7.77158
-7.77096
-7.76983
-7.76788
-7.76486
-7.76089
-7.78256
-7.7806
-7.77886
-7.77747
-7.77642
-7.77569
-7.7752
-7.77489
-7.7747
-7.77458
-7.77449
-7.77442
-7.77435
-7.77428
-7.7742
-7.77411
-7.77402
-7.77392
-7.77382
-7.77372
-7.77362
-7.77351
-7.77341
-7.77332
-7.77322
-7.77313
-7.77304
-7.77296
-7.77288
-7.7728
-7.77271
-7.77262
-7.77249
-7.7723
-7.77196
-7.77135
-7.77019
-7.76815
-7.7649
-7.76058
-7.78287
-7.78097
-7.77928
-7.77792
-7.7769
-7.77619
-7.77571
-7.77542
-7.77524
-7.77514
-7.77506
-7.775
-7.77495
-7.77488
-7.77481
-7.77472
-7.77463
-7.77453
-7.77442
-7.77431
-7.77419
-7.77408
-7.77396
-7.77385
-7.77374
-7.77364
-7.77354
-7.77344
-7.77334
-7.77325
-7.77315
-7.77305
-7.77292
-7.77272
-7.7724
-7.77179
-7.77061
-7.76847
-7.76499
-7.76027
-7.78316
-7.78133
-7.77971
-7.7784
-7.77741
-7.77672
-7.77628
-7.776
-7.77584
-7.77576
-7.7757
-7.77566
-7.77561
-7.77556
-7.77549
-7.77541
-7.77531
-7.77521
-7.77509
-7.77497
-7.77485
-7.77473
-7.7746
-7.77448
-7.77435
-7.77423
-7.77411
-7.774
-7.77389
-7.77378
-7.77367
-7.77355
-7.77341
-7.77322
-7.77289
-7.77228
-7.77109
-7.76885
-7.76513
-7.75997
-7.78344
-7.7817
-7.78015
-7.7789
-7.77796
-7.77731
-7.77689
-7.77664
-7.77651
-7.77644
-7.77639
-7.77637
-7.77634
-7.77629
-7.77623
-7.77615
-7.77606
-7.77596
-7.77584
-7.77572
-7.77559
-7.77545
-7.77532
-7.77518
-7.77504
-7.77491
-7.77477
-7.77464
-7.77451
-7.77438
-7.77426
-7.77412
-7.77397
-7.77377
-7.77344
-7.77283
-7.77162
-7.76929
-7.76531
-7.75968
-7.7837
-7.78207
-7.78061
-7.77944
-7.77856
-7.77795
-7.77756
-7.77734
-7.77722
-7.77717
-7.77714
-7.77713
-7.77711
-7.77708
-7.77702
-7.77695
-7.77686
-7.77676
-7.77664
-7.77651
-7.77638
-7.77624
-7.7761
-7.77595
-7.7758
-7.77565
-7.77551
-7.77536
-7.77521
-7.77506
-7.77491
-7.77476
-7.77459
-7.77437
-7.77404
-7.77343
-7.77221
-7.76979
-7.76554
-7.75941
-7.78394
-7.78243
-7.78109
-7.78
-7.77919
-7.77863
-7.77828
-7.77809
-7.778
-7.77795
-7.77794
-7.77794
-7.77792
-7.7779
-7.77785
-7.77778
-7.7777
-7.77759
-7.77748
-7.77735
-7.77721
-7.77707
-7.77692
-7.77677
-7.77661
-7.77645
-7.77629
-7.77613
-7.77596
-7.7758
-7.77563
-7.77545
-7.77526
-7.77502
-7.77468
-7.77406
-7.77283
-7.77033
-7.76582
-7.75915
-7.78416
-7.7828
-7.78158
-7.7806
-7.77987
-7.77937
-7.77906
-7.77889
-7.77882
-7.77878
-7.77878
-7.77877
-7.77876
-7.77873
-7.77869
-7.77862
-7.77853
-7.77843
-7.77832
-7.77819
-7.77805
-7.7779
-7.77775
-7.77759
-7.77743
-7.77727
-7.7771
-7.77692
-7.77674
-7.77656
-7.77637
-7.77617
-7.77595
-7.77569
-7.77533
-7.77471
-7.77348
-7.77092
-7.76615
-7.75891
-7.78438
-7.78317
-7.7821
-7.78122
-7.7806
-7.78016
-7.77989
-7.77975
-7.77967
-7.77964
-7.77963
-7.77962
-7.7796
-7.77956
-7.77951
-7.77944
-7.77935
-7.77924
-7.77912
-7.779
-7.77886
-7.77871
-7.77856
-7.7784
-7.77823
-7.77806
-7.77788
-7.7777
-7.77751
-7.77731
-7.7771
-7.77688
-7.77664
-7.77636
-7.77598
-7.77536
-7.77413
-7.77154
-7.76653
-7.75869
-7.78457
-7.78353
-7.78263
-7.78188
-7.78135
-7.78098
-7.78075
-7.78062
-7.78054
-7.78049
-7.78046
-7.78043
-7.78039
-7.78034
-7.78027
-7.78019
-7.78009
-7.77998
-7.77986
-7.77973
-7.77959
-7.77944
-7.77929
-7.77913
-7.77896
-7.77879
-7.7786
-7.77841
-7.77821
-7.778
-7.77778
-7.77754
-7.77728
-7.77697
-7.77658
-7.77596
-7.77475
-7.77215
-7.76694
-7.7585
-7.78474
-7.78389
-7.78315
-7.78254
-7.7821
-7.78179
-7.78158
-7.78145
-7.78135
-7.78129
-7.78122
-7.78116
-7.78109
-7.78102
-7.78093
-7.78083
-7.78072
-7.7806
-7.78048
-7.78034
-7.7802
-7.78005
-7.7799
-7.77974
-7.77957
-7.77939
-7.7792
-7.77901
-7.7788
-7.77858
-7.77834
-7.77809
-7.77781
-7.77749
-7.77709
-7.77647
-7.7753
-7.77273
-7.76735
-7.75833
-7.78489
-7.78421
-7.78362
-7.78314
-7.78277
-7.78251
-7.78231
-7.78216
-7.78204
-7.78194
-7.78184
-7.78174
-7.78164
-7.78154
-7.78143
-7.78131
-7.78119
-7.78107
-7.78093
-7.78079
-7.78065
-7.7805
-7.78034
-7.78018
-7.78001
-7.77983
-7.77964
-7.77943
-7.77922
-7.77899
-7.77875
-7.77848
-7.77819
-7.77785
-7.77744
-7.77683
-7.77571
-7.77321
-7.76774
-7.75819
-7.78499
-7.78444
-7.78397
-7.78358
-7.78326
-7.78302
-7.78281
-7.78265
-7.7825
-7.78236
-7.78223
-7.78211
-7.78199
-7.78186
-7.78173
-7.78161
-7.78147
-7.78134
-7.7812
-7.78106
-7.78091
-7.78076
-7.7806
-7.78043
-7.78025
-7.78007
-7.77987
-7.77967
-7.77945
-7.77921
-7.77896
-7.77868
-7.77838
-7.77803
-7.7776
-7.77698
-7.77587
-7.77343
-7.76794
-7.75804
-7.78504
-7.78455
-7.78413
-7.78378
-7.78348
-7.78324
-7.78304
-7.78285
-7.78269
-7.78254
-7.78239
-7.78226
-7.78212
-7.78198
-7.78185
-7.78171
-7.78158
-7.78144
-7.7813
-7.78115
-7.781
-7.78084
-7.78068
-7.78051
-7.78033
-7.78015
-7.77995
-7.77974
-7.77951
-7.77927
-7.77901
-7.77872
-7.77841
-7.77805
-7.7776
-7.77695
-7.77579
-7.77334
-7.7679
-7.75788
-7.77055
-7.77027
-7.77005
-7.76988
-7.76975
-7.76964
-7.76953
-7.76943
-7.76934
-7.76924
-7.76915
-7.76905
-7.76896
-7.76887
-7.76878
-7.76869
-7.7686
-7.76851
-7.76842
-7.76833
-7.76824
-7.76815
-7.76807
-7.76798
-7.7679
-7.76781
-7.76772
-7.76763
-7.76754
-7.76745
-7.76735
-7.76724
-7.76713
-7.76701
-7.76689
-7.76677
-7.76666
-7.76658
-7.76652
-7.76651
-7.77072
-7.77029
-7.77002
-7.76985
-7.76974
-7.76963
-7.76953
-7.76943
-7.76934
-7.76924
-7.76915
-7.76905
-7.76896
-7.76887
-7.76878
-7.76869
-7.7686
-7.76851
-7.76842
-7.76833
-7.76824
-7.76816
-7.76807
-7.76798
-7.7679
-7.76781
-7.76772
-7.76764
-7.76754
-7.76745
-7.76735
-7.76725
-7.76714
-7.76703
-7.76691
-7.76679
-7.76668
-7.76659
-7.76653
-7.7665
-7.77107
-7.77042
-7.77006
-7.76986
-7.76973
-7.76963
-7.76953
-7.76944
-7.76934
-7.76925
-7.76916
-7.76907
-7.76897
-7.76888
-7.76879
-7.7687
-7.76861
-7.76852
-7.76843
-7.76834
-7.76826
-7.76817
-7.76808
-7.768
-7.76791
-7.76783
-7.76774
-7.76766
-7.76757
-7.76748
-7.76739
-7.76729
-7.76719
-7.76708
-7.76696
-7.76683
-7.76672
-7.76661
-7.76653
-7.76647
-7.77151
-7.77066
-7.77014
-7.7699
-7.76976
-7.76966
-7.76956
-7.76947
-7.76938
-7.76929
-7.76919
-7.7691
-7.76901
-7.76892
-7.76883
-7.76874
-7.76865
-7.76856
-7.76847
-7.76838
-7.76829
-7.76821
-7.76812
-7.76803
-7.76795
-7.76787
-7.76779
-7.76771
-7.76763
-7.76754
-7.76746
-7.76737
-7.76728
-7.76717
-7.76706
-7.76692
-7.76678
-7.76665
-7.76652
-7.76643
-7.77202
-7.77095
-7.7703
-7.77
-7.76983
-7.76972
-7.76963
-7.76953
-7.76944
-7.76935
-7.76926
-7.76917
-7.76908
-7.76899
-7.7689
-7.76881
-7.76872
-7.76863
-7.76854
-7.76845
-7.76836
-7.76828
-7.76819
-7.76811
-7.76802
-7.76795
-7.76787
-7.76779
-7.76772
-7.76765
-7.76757
-7.76749
-7.76741
-7.7673
-7.76718
-7.76704
-7.76686
-7.7667
-7.76652
-7.76637
-7.77255
-7.7713
-7.77053
-7.77013
-7.76995
-7.76982
-7.76973
-7.76964
-7.76955
-7.76946
-7.76937
-7.76928
-7.76919
-7.7691
-7.76901
-7.76892
-7.76883
-7.76874
-7.76865
-7.76856
-7.76847
-7.76838
-7.7683
-7.76822
-7.76814
-7.76806
-7.76799
-7.76792
-7.76786
-7.76779
-7.76772
-7.76766
-7.76757
-7.76748
-7.76734
-7.76719
-7.76697
-7.76675
-7.76652
-7.76629
-7.7731
-7.77169
-7.77079
-7.77032
-7.77009
-7.76996
-7.76986
-7.76977
-7.76969
-7.7696
-7.76951
-7.76943
-7.76934
-7.76925
-7.76916
-7.76907
-7.76898
-7.76889
-7.7688
-7.76871
-7.76862
-7.76853
-7.76845
-7.76836
-7.76829
-7.76821
-7.76814
-7.76808
-7.76802
-7.76797
-7.76791
-7.76785
-7.76776
-7.76767
-7.76752
-7.76734
-7.7671
-7.76681
-7.76651
-7.7662
-7.77365
-7.7721
-7.77108
-7.77054
-7.77027
-7.77013
-7.77002
-7.76994
-7.76986
-7.76977
-7.76969
-7.76961
-7.76952
-7.76943
-7.76934
-7.76925
-7.76916
-7.76907
-7.76898
-7.76889
-7.7688
-7.76872
-7.76863
-7.76855
-7.76847
-7.7684
-7.76833
-7.76827
-7.76822
-7.76817
-7.76811
-7.76805
-7.76798
-7.76787
-7.76772
-7.76751
-7.76722
-7.76688
-7.76649
-7.76608
-7.77419
-7.77254
-7.77141
-7.7708
-7.77048
-7.77032
-7.77021
-7.77013
-7.77005
-7.76997
-7.76989
-7.76981
-7.76973
-7.76964
-7.76955
-7.76947
-7.76938
-7.76929
-7.7692
-7.76911
-7.76902
-7.76893
-7.76885
-7.76877
-7.76869
-7.76862
-7.76855
-7.76849
-7.76844
-7.76839
-7.76834
-7.76828
-7.7682
-7.76809
-7.76792
-7.76769
-7.76736
-7.76693
-7.76646
-7.76595
-7.77473
-7.77298
-7.77176
-7.77107
-7.77072
-7.77053
-7.77042
-7.77033
-7.77026
-7.77018
-7.77011
-7.77003
-7.76995
-7.76987
-7.76979
-7.7697
-7.76961
-7.76953
-7.76944
-7.76935
-7.76926
-7.76917
-7.76909
-7.76901
-7.76893
-7.76886
-7.76879
-7.76873
-7.76868
-7.76863
-7.76858
-7.76851
-7.76844
-7.76831
-7.76813
-7.76786
-7.76749
-7.76699
-7.76641
-7.76579
-7.77527
-7.77344
-7.77213
-7.77137
-7.77097
-7.77076
-7.77063
-7.77055
-7.77047
-7.7704
-7.77033
-7.77026
-7.77018
-7.7701
-7.77003
-7.76994
-7.76986
-7.76978
-7.76969
-7.76961
-7.76952
-7.76943
-7.76935
-7.76927
-7.76919
-7.76912
-7.76905
-7.76899
-7.76893
-7.76888
-7.76883
-7.76876
-7.76868
-7.76854
-7.76834
-7.76804
-7.76762
-7.76704
-7.76636
-7.76562
-7.77579
-7.77389
-7.77251
-7.77167
-7.77123
-7.77099
-7.77086
-7.77076
-7.77069
-7.77062
-7.77055
-7.77048
-7.77041
-7.77034
-7.77027
-7.77019
-7.77011
-7.77003
-7.76995
-7.76987
-7.76978
-7.7697
-7.76962
-7.76954
-7.76946
-7.76939
-7.76932
-7.76926
-7.7692
-7.76914
-7.76909
-7.76901
-7.76892
-7.76877
-7.76855
-7.76821
-7.76773
-7.76708
-7.76629
-7.76542
-7.7763
-7.77435
-7.77289
-7.77199
-7.7715
-7.77123
-7.77108
-7.77098
-7.7709
-7.77083
-7.77076
-7.7707
-7.77063
-7.77057
-7.7705
-7.77043
-7.77035
-7.77028
-7.7702
-7.77012
-7.77005
-7.76997
-7.76989
-7.76981
-7.76973
-7.76966
-7.76959
-7.76953
-7.76947
-7.76941
-7.76935
-7.76927
-7.76916
-7.769
-7.76875
-7.76839
-7.76785
-7.76712
-7.76621
-7.7652
-7.77679
-7.7748
-7.77328
-7.77232
-7.77177
-7.77147
-7.7713
-7.77118
-7.7711
-7.77103
-7.77096
-7.7709
-7.77084
-7.77078
-7.77071
-7.77065
-7.77058
-7.77051
-7.77044
-7.77037
-7.7703
-7.77022
-7.77015
-7.77007
-7.77
-7.76993
-7.76986
-7.7698
-7.76974
-7.76968
-7.76961
-7.76952
-7.7694
-7.76923
-7.76896
-7.76855
-7.76796
-7.76714
-7.76612
-7.76496
-7.77728
-7.77525
-7.77367
-7.77265
-7.77205
-7.77171
-7.77151
-7.77138
-7.77129
-7.77122
-7.77115
-7.77109
-7.77103
-7.77097
-7.77091
-7.77085
-7.77079
-7.77073
-7.77067
-7.7706
-7.77053
-7.77047
-7.7704
-7.77033
-7.77026
-7.77019
-7.77013
-7.77006
-7.77
-7.76993
-7.76986
-7.76977
-7.76964
-7.76944
-7.76915
-7.76871
-7.76806
-7.76716
-7.76601
-7.7647
-7.77775
-7.77569
-7.77407
-7.77298
-7.77233
-7.77195
-7.77172
-7.77157
-7.77147
-7.77139
-7.77132
-7.77126
-7.7712
-7.77115
-7.77109
-7.77104
-7.77098
-7.77093
-7.77087
-7.77081
-7.77075
-7.77069
-7.77062
-7.77056
-7.7705
-7.77043
-7.77037
-7.77031
-7.77025
-7.77018
-7.7701
-7.77
-7.76986
-7.76965
-7.76934
-7.76886
-7.76816
-7.76718
-7.7659
-7.76443
-7.77822
-7.77613
-7.77446
-7.77332
-7.77261
-7.77219
-7.77193
-7.77176
-7.77164
-7.77155
-7.77148
-7.77141
-7.77136
-7.7713
-7.77125
-7.7712
-7.77115
-7.7711
-7.77105
-7.771
-7.77094
-7.77089
-7.77083
-7.77077
-7.77072
-7.77066
-7.7706
-7.77054
-7.77048
-7.77041
-7.77033
-7.77022
-7.77007
-7.76985
-7.76952
-7.76902
-7.76826
-7.76719
-7.76578
-7.76415
-7.77867
-7.77656
-7.77485
-7.77365
-7.77289
-7.77242
-7.77213
-7.77194
-7.7718
-7.7717
-7.77162
-7.77156
-7.7715
-7.77145
-7.7714
-7.77135
-7.7713
-7.77126
-7.77121
-7.77116
-7.77111
-7.77107
-7.77102
-7.77096
-7.77091
-7.77086
-7.77081
-7.77075
-7.77069
-7.77062
-7.77053
-7.77043
-7.77027
-7.77004
-7.7697
-7.76916
-7.76836
-7.7672
-7.76566
-7.76385
-7.77911
-7.77699
-7.77524
-7.77399
-7.77317
-7.77266
-7.77233
-7.77212
-7.77197
-7.77186
-7.77177
-7.7717
-7.77164
-7.77159
-7.77154
-7.77149
-7.77145
-7.7714
-7.77136
-7.77131
-7.77127
-7.77123
-7.77118
-7.77114
-7.77109
-7.77104
-7.77099
-7.77094
-7.77088
-7.77081
-7.77073
-7.77062
-7.77046
-7.77023
-7.76987
-7.76931
-7.76846
-7.76722
-7.76554
-7.76354
-7.77955
-7.7774
-7.77562
-7.77433
-7.77346
-7.7729
-7.77254
-7.7723
-7.77214
-7.77202
-7.77192
-7.77185
-7.77179
-7.77173
-7.77168
-7.77163
-7.77159
-7.77154
-7.7715
-7.77146
-7.77142
-7.77137
-7.77133
-7.77129
-7.77125
-7.7712
-7.77116
-7.77111
-7.77105
-7.77099
-7.77091
-7.7708
-7.77064
-7.7704
-7.77004
-7.76947
-7.76858
-7.76725
-7.76542
-7.76323
-7.77996
-7.77782
-7.776
-7.77467
-7.77376
-7.77316
-7.77277
-7.77251
-7.77232
-7.77219
-7.77209
-7.77201
-7.77195
-7.77189
-7.77183
-7.77178
-7.77174
-7.77169
-7.77165
-7.7716
-7.77156
-7.77152
-7.77148
-7.77144
-7.7714
-7.77136
-7.77132
-7.77127
-7.77122
-7.77115
-7.77107
-7.77097
-7.77081
-7.77058
-7.77021
-7.76963
-7.7687
-7.76729
-7.76531
-7.7629
-7.78037
-7.77822
-7.77638
-7.77501
-7.77406
-7.77343
-7.77301
-7.77273
-7.77254
-7.7724
-7.77229
-7.77221
-7.77213
-7.77207
-7.77201
-7.77196
-7.77191
-7.77186
-7.77181
-7.77176
-7.77172
-7.77168
-7.77163
-7.77159
-7.77155
-7.77151
-7.77147
-7.77142
-7.77137
-7.77131
-7.77124
-7.77113
-7.77098
-7.77075
-7.77039
-7.7698
-7.76885
-7.76735
-7.76522
-7.76258
-7.78077
-7.77862
-7.77677
-7.77536
-7.77438
-7.77372
-7.77327
-7.77298
-7.77278
-7.77263
-7.77252
-7.77244
-7.77236
-7.77229
-7.77223
-7.77217
-7.77211
-7.77205
-7.772
-7.77195
-7.7719
-7.77185
-7.77181
-7.77176
-7.77172
-7.77168
-7.77163
-7.77159
-7.77154
-7.77148
-7.77141
-7.77131
-7.77117
-7.77094
-7.77059
-7.77
-7.76902
-7.76744
-7.76514
-7.76225
-7.78115
-7.77901
-7.77715
-7.77573
-7.77471
-7.77403
-7.77357
-7.77326
-7.77306
-7.77291
-7.7728
-7.77271
-7.77263
-7.77256
-7.77249
-7.77243
-7.77236
-7.7723
-7.77223
-7.77217
-7.77212
-7.77206
-7.77201
-7.77196
-7.77191
-7.77186
-7.77182
-7.77177
-7.77172
-7.77166
-7.77159
-7.7715
-7.77136
-7.77115
-7.77081
-7.77022
-7.76922
-7.76756
-7.76508
-7.76193
-7.78152
-7.77939
-7.77754
-7.7761
-7.77507
-7.77437
-7.7739
-7.77359
-7.77338
-7.77324
-7.77313
-7.77304
-7.77297
-7.77289
-7.77282
-7.77274
-7.77267
-7.7726
-7.77252
-7.77245
-7.77239
-7.77232
-7.77226
-7.7722
-7.77214
-7.77209
-7.77204
-7.77198
-7.77193
-7.77187
-7.7718
-7.77171
-7.77159
-7.77139
-7.77106
-7.77048
-7.76946
-7.76772
-7.76506
-7.7616
-7.78188
-7.77977
-7.77793
-7.77649
-7.77545
-7.77474
-7.77427
-7.77396
-7.77376
-7.77362
-7.77352
-7.77344
-7.77336
-7.77328
-7.77321
-7.77313
-7.77305
-7.77296
-7.77288
-7.7728
-7.77272
-7.77265
-7.77257
-7.7725
-7.77243
-7.77237
-7.77231
-7.77225
-7.77219
-7.77213
-7.77206
-7.77197
-7.77185
-7.77166
-7.77135
-7.77078
-7.76975
-7.76792
-7.76506
-7.76129
-7.78222
-7.78015
-7.77832
-7.7769
-7.77586
-7.77515
-7.77468
-7.77438
-7.77419
-7.77406
-7.77397
-7.7739
-7.77382
-7.77375
-7.77367
-7.77359
-7.7735
-7.77341
-7.77332
-7.77322
-7.77313
-7.77304
-7.77296
-7.77287
-7.77279
-7.77272
-7.77264
-7.77257
-7.7725
-7.77244
-7.77236
-7.77228
-7.77216
-7.77198
-7.77168
-7.77113
-7.77008
-7.76818
-7.7651
-7.76098
-7.78255
-7.78052
-7.77873
-7.77733
-7.7763
-7.77559
-7.77513
-7.77485
-7.77467
-7.77456
-7.77449
-7.77442
-7.77436
-7.77429
-7.77421
-7.77413
-7.77403
-7.77393
-7.77383
-7.77373
-7.77363
-7.77352
-7.77342
-7.77333
-7.77323
-7.77314
-7.77305
-7.77297
-7.77289
-7.77281
-7.77273
-7.77264
-7.77253
-7.77236
-7.77207
-7.77152
-7.77047
-7.76848
-7.76519
-7.76068
-7.78286
-7.78089
-7.77915
-7.77778
-7.77677
-7.77608
-7.77564
-7.77537
-7.77521
-7.77513
-7.77506
-7.77501
-7.77496
-7.7749
-7.77483
-7.77474
-7.77465
-7.77454
-7.77443
-7.77432
-7.77421
-7.77409
-7.77398
-7.77387
-7.77376
-7.77365
-7.77355
-7.77345
-7.77336
-7.77327
-7.77317
-7.77307
-7.77296
-7.77279
-7.77251
-7.77198
-7.77091
-7.76885
-7.76533
-7.76039
-7.78315
-7.78126
-7.77958
-7.77825
-7.77728
-7.77662
-7.77619
-7.77595
-7.77581
-7.77574
-7.7757
-7.77566
-7.77563
-7.77558
-7.77551
-7.77543
-7.77533
-7.77523
-7.77511
-7.77499
-7.77487
-7.77474
-7.77462
-7.77449
-7.77437
-7.77425
-7.77413
-7.77402
-7.77391
-7.7738
-7.77369
-7.77358
-7.77345
-7.77329
-7.77301
-7.77248
-7.77141
-7.76928
-7.76551
-7.76011
-7.78343
-7.78163
-7.78003
-7.77875
-7.77782
-7.7772
-7.7768
-7.77658
-7.77647
-7.77642
-7.77639
-7.77638
-7.77635
-7.77631
-7.77626
-7.77618
-7.77609
-7.77598
-7.77587
-7.77574
-7.77561
-7.77548
-7.77534
-7.7752
-7.77507
-7.77493
-7.7748
-7.77467
-7.77454
-7.77441
-7.77429
-7.77416
-7.77402
-7.77384
-7.77356
-7.77304
-7.77197
-7.76977
-7.76576
-7.75985
-7.78369
-7.782
-7.78049
-7.77928
-7.77841
-7.77783
-7.77747
-7.77727
-7.77719
-7.77715
-7.77714
-7.77714
-7.77713
-7.7771
-7.77705
-7.77698
-7.77689
-7.77679
-7.77667
-7.77655
-7.77641
-7.77627
-7.77613
-7.77598
-7.77583
-7.77569
-7.77554
-7.77539
-7.77525
-7.7751
-7.77495
-7.77481
-7.77464
-7.77445
-7.77416
-7.77365
-7.77258
-7.77032
-7.76606
-7.75961
-7.78393
-7.78237
-7.78097
-7.77985
-7.77905
-7.77851
-7.77819
-7.77802
-7.77796
-7.77793
-7.77794
-7.77795
-7.77795
-7.77793
-7.77788
-7.77782
-7.77773
-7.77763
-7.77752
-7.77739
-7.77725
-7.77711
-7.77696
-7.77681
-7.77665
-7.77649
-7.77633
-7.77617
-7.77601
-7.77584
-7.77568
-7.7755
-7.77532
-7.7751
-7.77481
-7.77429
-7.77323
-7.77093
-7.76643
-7.7594
-7.78416
-7.78274
-7.78147
-7.78045
-7.77973
-7.77925
-7.77897
-7.77883
-7.77878
-7.77877
-7.77878
-7.77879
-7.77879
-7.77877
-7.77873
-7.77866
-7.77858
-7.77848
-7.77836
-7.77824
-7.7781
-7.77795
-7.7778
-7.77764
-7.77748
-7.77732
-7.77715
-7.77698
-7.7768
-7.77662
-7.77643
-7.77623
-7.77602
-7.77578
-7.77547
-7.77495
-7.77389
-7.77158
-7.76685
-7.7592
-7.78437
-7.78311
-7.782
-7.78109
-7.78046
-7.78004
-7.77981
-7.77969
-7.77964
-7.77963
-7.77964
-7.77964
-7.77963
-7.7796
-7.77956
-7.77949
-7.7794
-7.7793
-7.77918
-7.77905
-7.77891
-7.77877
-7.77862
-7.77846
-7.77829
-7.77812
-7.77795
-7.77776
-7.77758
-7.77738
-7.77717
-7.77696
-7.77672
-7.77646
-7.77612
-7.7756
-7.77457
-7.77226
-7.76733
-7.75904
-7.78456
-7.78349
-7.78254
-7.78177
-7.78123
-7.78089
-7.78068
-7.78058
-7.78052
-7.7805
-7.78049
-7.78047
-7.78044
-7.78039
-7.78033
-7.78025
-7.78015
-7.78004
-7.77992
-7.77979
-7.77966
-7.77951
-7.77936
-7.7792
-7.77903
-7.77886
-7.77868
-7.77849
-7.77829
-7.77808
-7.77786
-7.77763
-7.77737
-7.77709
-7.77673
-7.77621
-7.77522
-7.77292
-7.76784
-7.75891
-7.78474
-7.78386
-7.78309
-7.78247
-7.78202
-7.78174
-7.78155
-7.78144
-7.78137
-7.78132
-7.78127
-7.78121
-7.78115
-7.78108
-7.78099
-7.7809
-7.78079
-7.78067
-7.78055
-7.78041
-7.78027
-7.78013
-7.77997
-7.77981
-7.77965
-7.77947
-7.77929
-7.77909
-7.77889
-7.77867
-7.77844
-7.77819
-7.77792
-7.77762
-7.77725
-7.77673
-7.77577
-7.77354
-7.76833
-7.75879
-7.78489
-7.78419
-7.78359
-7.78311
-7.78275
-7.7825
-7.78232
-7.78219
-7.78208
-7.78199
-7.7819
-7.78181
-7.78171
-7.78161
-7.7815
-7.78138
-7.78126
-7.78114
-7.781
-7.78087
-7.78072
-7.78057
-7.78042
-7.78026
-7.78009
-7.77991
-7.77972
-7.77952
-7.77931
-7.77909
-7.77885
-7.77859
-7.7783
-7.77798
-7.7776
-7.77708
-7.77616
-7.77404
-7.76876
-7.75868
-7.78499
-7.78444
-7.78397
-7.78359
-7.78328
-7.78305
-7.78286
-7.7827
-7.78256
-7.78243
-7.7823
-7.78217
-7.78205
-7.78192
-7.7818
-7.78167
-7.78153
-7.7814
-7.78126
-7.78112
-7.78097
-7.78082
-7.78066
-7.7805
-7.78032
-7.78014
-7.77995
-7.77974
-7.77953
-7.77929
-7.77904
-7.77877
-7.77848
-7.77814
-7.77774
-7.7772
-7.77628
-7.7742
-7.76892
-7.75849
-7.78504
-7.78455
-7.78414
-7.78379
-7.78351
-7.78328
-7.78308
-7.7829
-7.78274
-7.78259
-7.78244
-7.7823
-7.78216
-7.78203
-7.78189
-7.78175
-7.78162
-7.78148
-7.78134
-7.78119
-7.78104
-7.78088
-7.78072
-7.78055
-7.78038
-7.78019
-7.77999
-7.77978
-7.77956
-7.77932
-7.77906
-7.77878
-7.77847
-7.77812
-7.77769
-7.7771
-7.77609
-7.77391
-7.76866
-7.75826
-7.77054
-7.77026
-7.77004
-7.76987
-7.76975
-7.76964
-7.76953
-7.76943
-7.76934
-7.76924
-7.76915
-7.76905
-7.76896
-7.76887
-7.76878
-7.76869
-7.7686
-7.76851
-7.76842
-7.76833
-7.76824
-7.76815
-7.76807
-7.76798
-7.76789
-7.76781
-7.76772
-7.76763
-7.76754
-7.76745
-7.76735
-7.76724
-7.76713
-7.76701
-7.76689
-7.76677
-7.76666
-7.76657
-7.76652
-7.76651
-7.7707
-7.77026
-7.77
-7.76984
-7.76973
-7.76963
-7.76953
-7.76943
-7.76933
-7.76924
-7.76915
-7.76905
-7.76896
-7.76887
-7.76878
-7.76869
-7.7686
-7.76851
-7.76842
-7.76833
-7.76824
-7.76815
-7.76807
-7.76798
-7.7679
-7.76781
-7.76772
-7.76763
-7.76754
-7.76745
-7.76735
-7.76725
-7.76714
-7.76702
-7.7669
-7.76678
-7.76668
-7.76658
-7.76652
-7.7665
-7.77104
-7.77038
-7.77003
-7.76984
-7.76973
-7.76962
-7.76953
-7.76943
-7.76934
-7.76925
-7.76915
-7.76906
-7.76897
-7.76888
-7.76879
-7.7687
-7.76861
-7.76852
-7.76843