/*--------------------------------*- C++ -*----------------------------------*\
  =========                 |
  \\      /  F ield         | OpenFOAM: The Open Source CFD Toolbox
   \\    /   O peration     | Website:  https://openfoam.org
    \\  /    A nd           | Version:  12
     \\/     M anipulation  |
\*---------------------------------------------------------------------------*/
FoamFile
{
    format      ascii;
    class       surfaceScalarField;
    location    "450";
    object      phi;
}
// * * * * * * * * * * * * * * * * * * * * * * * * * * * * * * * * * * * * * //

dimensions      [1 0 -1 0 0 0 0];

internalField   nonuniform List<scalar> 
22000
(
-2.00915e-08
2.34718e-08
-3.38032e-09
-2.88516e-08
1.23753e-08
-3.61529e-09
-2.94843e-08
2.74971e-09
-2.11703e-09
-2.75116e-08
-7.59924e-10
-1.21277e-09
-2.58577e-08
-1.09917e-09
-5.54779e-10
-2.47893e-08
-7.35588e-10
-3.32868e-10
-2.41739e-08
-3.96319e-10
-2.19081e-10
-2.38208e-08
-1.65574e-10
-1.87609e-10
-2.36157e-08
-3.82923e-11
-1.6691e-10
-2.3486e-08
3.00982e-11
-1.59779e-10
-2.33889e-08
5.86691e-11
-1.55879e-10
-2.33063e-08
7.0152e-11
-1.52772e-10
-2.32298e-08
7.1292e-11
-1.478e-10
-2.31443e-08
6.21979e-11
-1.47702e-10
-2.30477e-08
4.8151e-11
-1.44853e-10
-2.29387e-08
3.26427e-11
-1.41641e-10
-2.28159e-08
1.55002e-11
-1.38332e-10
-2.26821e-08
-5.85189e-13
-1.33252e-10
-2.25439e-08
-1.17691e-11
-1.26487e-10
-2.24096e-08
-1.58054e-11
-1.18443e-10
-2.22973e-08
-6.21796e-12
-1.0613e-10
-2.22228e-08
1.75419e-11
-9.21546e-11
-2.22056e-08
5.33703e-11
-7.05191e-11
-2.22688e-08
1.14643e-10
-5.1548e-11
-2.24383e-08
2.06565e-10
-3.71043e-11
-2.27447e-08
3.30437e-10
-2.40494e-11
-2.32131e-08
4.87178e-10
-1.88021e-11
-2.38582e-08
6.71704e-10
-2.66792e-11
-2.46711e-08
8.68486e-10
-5.56104e-11
-2.56144e-08
1.05639e-09
-1.13123e-10
-2.66015e-08
1.19457e-09
-2.07498e-10
-2.7413e-08
1.14776e-09
-3.36321e-10
-2.77453e-08
9.18671e-10
-5.86448e-10
-2.71662e-08
3.30361e-10
-9.09486e-10
-2.53757e-08
-5.42806e-10
-1.2477e-09
-2.19064e-08
-1.83849e-09
-1.63082e-09
-1.68393e-08
-3.20346e-09
-1.86367e-09
-1.05923e-08
-4.39925e-09
-1.84778e-09
-4.24566e-09
-4.92681e-09
-1.41986e-09
-3.67793e-09
-5.67748e-10
-1.7745e-08
4.59603e-08
-4.74359e-09
-3.06795e-08
2.99811e-08
-4.67129e-09
-3.66231e-08
1.10012e-08
-2.3078e-09
-3.80928e-08
1.9363e-09
-1.22661e-09
-3.83576e-08
-3.08853e-10
-5.25564e-10
-3.83853e-08
-4.07468e-10
-3.00439e-10
-3.83955e-08
-1.90375e-10
-1.95851e-10
-3.84191e-08
2.94677e-11
-1.71434e-10
-3.84627e-08
1.43727e-10
-1.38496e-10
-3.85036e-08
1.86633e-10
-1.15744e-10
-3.85133e-08
1.91898e-10
-1.23599e-10
-3.84994e-08
1.82137e-10
-1.25922e-10
-3.84695e-08
1.57463e-10
-1.16137e-10
-3.84086e-08
1.20523e-10
-1.19207e-10
-3.8318e-08
7.3345e-11
-1.15832e-10
-3.82015e-08
2.83795e-11
-1.12296e-10
-3.80592e-08
-1.62951e-11
-1.10548e-10
-3.78988e-08
-5.4313e-11
-1.06683e-10
-3.77338e-08
-7.47912e-11
-1.01984e-10
-3.75806e-08
-7.06397e-11
-9.84296e-11
-3.74669e-08
-3.57477e-11
-8.42526e-11
-3.74126e-08
2.44424e-11
-6.12406e-11
-3.74565e-08
1.32696e-10
-3.54618e-11
-3.76253e-08
3.14158e-10
-3.07719e-11
-3.79605e-08
5.63706e-10
-2.19598e-11
-3.84948e-08
8.80812e-10
-1.61234e-11
-3.92459e-08
1.25659e-09
-1.83964e-11
-4.0208e-08
1.66652e-09
-3.27429e-11
-4.133e-08
2.05858e-09
-6.81437e-11
-4.2518e-08
2.37407e-09
-1.29701e-10
-4.36353e-08
2.44829e-09
-1.36504e-10
-4.42796e-08
2.12616e-09
-3.34106e-10
-4.40364e-08
1.28321e-09
-6.07777e-10
-4.23423e-08
-4.10986e-10
-9.52825e-10
-3.87924e-08
-2.68919e-09
-1.40362e-09
-3.27932e-08
-5.91301e-09
-1.92469e-09
-2.46161e-08
-9.15216e-09
-2.22844e-09
-1.5008e-08
-1.1782e-08
-2.22538e-09
-5.64588e-09
-1.26337e-08
-1.65526e-09
-8.75398e-09
-5.69849e-10
-1.2174e-08
6.27247e-08
-4.59039e-09
-2.43583e-08
4.61541e-08
-3.98884e-09
-3.2475e-08
2.05268e-08
-1.40889e-09
-3.69073e-08
7.34863e-09
-9.80099e-10
-3.89989e-08
2.12977e-09
-3.47079e-10
-4.01708e-08
9.62437e-10
-1.98098e-10
-4.09323e-08
6.80393e-10
-1.0932e-10
-4.1461e-08
6.42947e-10
-8.47709e-11
-4.18554e-08
6.07015e-10
-6.89655e-11
-4.21586e-08
5.5164e-10
-6.1919e-11
-4.23769e-08
4.83078e-10
-7.29274e-11
-4.2534e-08
3.95205e-10
-5.59666e-11
-4.26316e-08
2.95855e-10
-4.08779e-11
-4.26619e-08
2.03353e-10
-5.25412e-11
-4.26481e-08
1.13739e-10
-5.42469e-11
-4.26035e-08
3.18239e-11
-4.80769e-11
-4.25247e-08
-4.191e-11
-5.3207e-11
-4.24206e-08
-1.0602e-10
-5.24087e-11
-4.23089e-08
-1.35694e-10
-5.08735e-11
-4.22109e-08
-1.19291e-10
-4.93908e-11
-4.21408e-08
-6.50774e-11
-4.07358e-11
-4.21263e-08
2.41796e-11
-1.43516e-11
-4.2209e-08
2.25254e-10
-9.8309e-12
-4.24112e-08
5.27832e-10
-1.1515e-11
-4.27608e-08
9.19486e-10
-6.27489e-12
-4.32845e-08
1.40726e-09
-2.80108e-12
-4.39832e-08
1.9575e-09
-2.30006e-12
-4.48351e-08
2.52405e-09
-5.62608e-12
-4.57738e-08
3.01918e-09
-2.19261e-11
-4.67296e-08
3.29701e-09
3.28173e-11
-4.74872e-08
3.16571e-09
4.01113e-11
-4.77025e-08
2.50213e-09
-1.60709e-10
-4.70874e-08
9.32642e-10
-2.64612e-10
-4.49377e-08
-1.89841e-09
-6.62319e-10
-4.10587e-08
-5.60959e-09
-9.5864e-10
-3.45162e-08
-1.0762e-08
-1.69352e-09
-2.57375e-08
-1.59264e-08
-2.00443e-09
-1.56191e-08
-1.98379e-08
-2.06257e-09
-5.81652e-09
-2.08877e-08
-1.54857e-09
-1.40867e-08
-4.83829e-10
-7.74006e-09
7.4328e-08
-3.86331e-09
-1.88265e-08
6.00941e-08
-2.85351e-09
-2.65834e-08
2.98549e-08
-1.5713e-09
-3.23207e-08
1.36939e-08
-6.07978e-10
-3.56683e-08
5.65657e-09
-1.79303e-10
-3.75985e-08
2.97743e-09
-8.48351e-11
-3.89062e-08
2.0227e-09
-3.45736e-11
-3.98391e-08
1.59189e-09
-1.61233e-11
-4.05444e-08
1.31762e-09
-5.3811e-12
-4.10908e-08
1.09958e-09
-1.62933e-12
-4.15106e-08
9.0765e-10
-4.80069e-12
-4.18344e-08
7.21972e-10
-2.97441e-12
-4.20756e-08
5.45964e-10
-9.0126e-12
-4.22437e-08
3.83813e-10
-1.23903e-11
-4.23598e-08
2.29301e-10
4.71553e-13
-4.24239e-08
8.92189e-11
6.71517e-12
-4.24351e-08
-2.30046e-11
-7.74043e-12
-4.24121e-08
-1.10958e-10
-1.81016e-11
-4.23712e-08
-1.52792e-10
-2.38559e-11
-4.23294e-08
-1.40884e-10
-2.02072e-11
-4.23002e-08
-8.36431e-11
-1.06794e-11
-4.23233e-08
4.38725e-11
3.35707e-12
-4.24e-08
3.13009e-10
-1.10928e-11
-4.25618e-08
6.98565e-10
-8.93087e-12
-4.28241e-08
1.18939e-09
-7.70747e-12
-4.32109e-08
1.79414e-09
-1.06951e-13
-4.37186e-08
2.45617e-09
8.9894e-12
-4.43309e-08
3.10989e-09
2.63869e-11
-4.50127e-08
3.63466e-09
6.62589e-11
-4.57254e-08
3.83103e-09
1.7871e-10
-4.61841e-08
3.4898e-09
1.34512e-10
-4.62251e-08
2.40459e-09
1.38468e-10
-4.56314e-08
2.97512e-10
4.14567e-11
-4.35343e-08
-3.56002e-09
-4.35606e-10
-4.01054e-08
-8.76535e-09
-2.73151e-10
-3.38771e-08
-1.56077e-08
-1.38263e-09
-2.53925e-08
-2.282e-08
-1.59095e-09
-1.55491e-08
-2.79601e-08
-1.7212e-09
-5.84662e-09
-2.92106e-08
-1.37956e-09
-1.95284e-08
-4.0494e-10
-4.78513e-09
8.21396e-08
-3.02647e-09
-1.40268e-08
7.14878e-08
-2.15215e-09
-2.1498e-08
3.8806e-08
-1.47992e-09
-2.71878e-08
1.91646e-08
2.18946e-10
-3.12094e-08
9.69103e-09
-1.28436e-11
-3.35762e-08
5.29575e-09
4.83711e-11
-3.51885e-08
3.59749e-09
3.7464e-11
-3.63764e-08
2.73816e-09
4.15885e-11
-3.72958e-08
2.19513e-09
4.18088e-11
-3.80236e-08
1.78635e-09
4.09317e-11
-3.86037e-08
1.4488e-09
3.89503e-11
-3.90714e-08
1.15084e-09
3.87337e-11
-3.94458e-08
8.84611e-10
3.57251e-11
-3.97397e-08
6.45409e-10
3.22447e-11
-3.9969e-08
4.28769e-10
2.98286e-11
-4.01396e-08
2.40311e-10
1.95215e-11
-4.02604e-08
8.51114e-11
1.25923e-11
-4.03376e-08
-3.05765e-11
-3.15078e-12
-4.03784e-08
-1.0688e-10
-5.14335e-12
-4.03921e-08
-1.32224e-10
4.93734e-12
-4.04068e-08
-8.06318e-11
1.16797e-11
-4.04469e-08
8.91109e-11
-5.17649e-12
-4.05087e-08
3.96145e-10
-2.13596e-11
-4.06132e-08
8.27333e-10
-2.43356e-11
-4.07653e-08
1.36857e-09
-2.71065e-11
-4.09907e-08
2.03296e-09
-1.34709e-11
-4.12837e-08
2.74379e-09
5.32157e-12
-4.16556e-08
3.41794e-09
6.37768e-11
-4.21075e-08
3.90994e-09
1.76574e-10
-4.25636e-08
4.03454e-09
2.52627e-10
-4.28487e-08
3.51705e-09
2.57805e-10
-4.28896e-08
2.09173e-09
3.5368e-10
-4.26416e-08
-5.92532e-10
6.41959e-10
-4.1161e-08
-5.07103e-09
3.03828e-11
-3.80316e-08
-1.17484e-08
-1.46383e-10
-3.27667e-08
-2.0091e-08
-7.81629e-10
-2.45557e-08
-2.93014e-08
-1.72966e-09
-1.5345e-08
-3.59379e-08
-1.23288e-09
-5.89045e-09
-3.75016e-08
-1.1636e-09
-2.50806e-08
-3.38287e-10
-2.67936e-09
8.70212e-08
-2.20224e-09
-1.01435e-08
8.03656e-08
-1.41367e-09
-1.7887e-08
4.65916e-08
-4.20362e-11
-2.28008e-08
2.40699e-08
8.53346e-12
-2.66408e-08
1.33057e-08
2.25333e-10
-2.92697e-08
7.86639e-09
5.8141e-11
-3.10309e-08
5.25391e-09
1.04701e-10
-3.23481e-08
3.97183e-09
8.3541e-11
-3.33839e-08
3.15116e-09
7.96951e-11
-3.42213e-08
2.55072e-09
7.29706e-11
-3.49073e-08
2.06668e-09
6.812e-11
-3.54759e-08
1.65575e-09
6.35835e-11
-3.59475e-08
1.29782e-09
5.83965e-11
-3.63371e-08
9.81528e-10
5.33786e-11
-3.66586e-08
7.01788e-10
4.8452e-11
-3.69187e-08
4.59374e-10
4.10338e-11
-3.71228e-08
2.56483e-10
3.27391e-11
-3.7274e-08
9.88138e-11
2.1795e-11
-3.73821e-08
-1.11685e-11
1.22758e-11
-3.74639e-08
-5.87018e-11
8.30526e-12
-3.75364e-08
-1.34977e-11
5.29197e-12
-3.75906e-08
1.56467e-10
-1.3202e-11
-3.76338e-08
4.64585e-10
-2.52292e-11
-3.76879e-08
9.10055e-10
-2.87069e-11
-3.77379e-08
1.45016e-09
-3.16159e-11
-3.78273e-08
2.12633e-09
-3.95311e-12
-3.79612e-08
2.86411e-09
1.35213e-11
-3.81552e-08
3.52436e-09
8.75298e-11
-3.84215e-08
3.98501e-09
1.9119e-10
-3.86653e-08
4.02687e-09
2.5138e-10
-3.88819e-08
3.39563e-09
3.37968e-10
-3.92463e-08
1.7893e-09
6.66819e-10
-3.90466e-08
-1.50555e-09
7.13244e-10
-3.81189e-08
-6.79023e-09
7.91436e-10
-3.54114e-08
-1.44708e-08
1.4868e-11
-3.10994e-08
-2.44562e-08
5.31748e-11
-2.36698e-08
-3.52151e-08
-1.51602e-09
-1.50457e-08
-4.3363e-08
-1.19907e-09
-5.89186e-09
-4.57945e-08
-8.61006e-10
-3.06785e-08
-2.93908e-10
-1.30292e-09
8.98759e-08
-1.55183e-09
-7.31641e-09
8.72311e-08
-8.52062e-10
-1.44572e-08
5.34445e-08
2.878e-10
-1.93604e-08
2.90292e-08
-5.61071e-11
-2.25851e-08
1.64251e-08
1.05297e-10
-2.51945e-08
1.02878e-08
1.87887e-10
-2.70289e-08
6.92566e-09
1.62608e-10
-2.83695e-08
5.18699e-09
1.25451e-10
-2.94303e-08
4.10506e-09
1.06767e-10
-3.02982e-08
3.32382e-09
9.48046e-11
-3.10241e-08
2.70598e-09
8.64911e-11
-3.16397e-08
2.19177e-09
7.95677e-11
-3.21656e-08
1.75068e-09
7.3006e-11
-3.26151e-08
1.36461e-09
6.6381e-11
-3.29999e-08
1.02704e-09
5.94843e-11
-3.33259e-08
7.33977e-10
5.13574e-11
-3.35979e-08
4.8603e-10
4.25001e-11
-3.38192e-08
2.87956e-10
3.20442e-11
-3.39976e-08
1.45659e-10
2.15525e-11
-3.41423e-08
7.46243e-11
1.13847e-11
-3.42557e-08
1.00079e-10
-1.88181e-13
-3.43335e-08
2.48739e-10
-1.45189e-11
-3.4384e-08
5.40618e-10
-2.55748e-11
-3.44116e-08
9.57171e-10
-1.95703e-11
-3.4382e-08
1.47936e-09
-5.88347e-11
-3.43779e-08
2.14913e-09
-2.69583e-11
-3.43911e-08
2.85371e-09
2.35864e-11
-3.44613e-08
3.50279e-09
9.17268e-11
-3.45887e-08
3.92356e-09
1.88831e-10
-3.47364e-08
3.87099e-09
3.03471e-10
-3.48999e-08
3.16393e-09
3.95133e-10
-3.53933e-08
1.42036e-09
8.62333e-10
-3.51971e-08
-2.3516e-09
6.49779e-10
-3.44783e-08
-8.41676e-09
9.07675e-10
-3.25727e-08
-1.69634e-08
5.87016e-10
-2.90065e-08
-2.83269e-08
3.04459e-10
-2.2704e-08
-4.07078e-08
-8.09781e-10
-1.45404e-08
-5.06711e-08
-8.55566e-10
-5.87672e-09
-5.38403e-08
-6.17919e-10
-3.63004e-08
-2.54801e-10
-3.76359e-10
9.13511e-08
-1.09886e-09
-5.14895e-09
9.24989e-08
-4.95227e-10
-1.14208e-08
5.94343e-08
2.82111e-10
-1.63688e-08
3.35496e-08
4.27454e-10
-1.94619e-08
1.92179e-08
3.00279e-10
-2.16832e-08
1.21966e-08
3.12467e-10
-2.34548e-08
8.47597e-09
2.21237e-10
-2.47346e-08
6.31002e-09
1.56797e-10
-2.57367e-08
4.97978e-09
1.27315e-10
-2.65616e-08
4.04028e-09
1.08368e-10
-2.72616e-08
3.30909e-09
9.68286e-11
-2.7867e-08
2.70941e-09
8.77204e-11
-2.83971e-08
2.2007e-09
8.00674e-11
-2.88629e-08
1.75776e-09
7.25716e-11
-2.92748e-08
1.37369e-09
6.5266e-11
-2.96379e-08
1.0399e-09
5.71649e-11
-2.99557e-08
7.5557e-10
4.82435e-11
-3.02302e-08
5.24463e-10
3.79594e-11
-3.04643e-08
3.53149e-10
2.65439e-11
-3.066e-08
2.56131e-10
1.41568e-11
-3.0815e-08
2.54498e-10
5.49852e-13
-3.09241e-08
3.717e-10
-1.3878e-11
-3.09836e-08
6.28238e-10
-2.80903e-11
-3.10009e-08
9.99632e-10
-2.52586e-11
-3.09447e-08
1.47165e-09
-4.846e-11
-3.08844e-08
2.11905e-09
-3.03222e-11
-3.0825e-08
2.77843e-09
1.58077e-11
-3.08017e-08
3.39008e-09
8.94485e-11
-3.08263e-08
3.76382e-09
1.84296e-10
-3.09128e-08
3.6316e-09
3.25831e-10
-3.09829e-08
2.77798e-09
4.55997e-10
-3.12317e-08
9.68071e-10
7.01031e-10
-3.12448e-08
-3.24369e-09
9.05106e-10
-3.08608e-08
-9.83208e-09
1.03136e-09
-2.95211e-08
-1.9209e-08
9.05852e-10
-2.67875e-08
-3.17266e-08
6.66113e-10
-2.1421e-08
-4.57195e-08
-3.54776e-10
-1.38243e-08
-5.765e-08
-6.17763e-10
-5.71755e-09
-6.15407e-08
-4.063e-10
-4.18332e-08
-1.84771e-10
2.81518e-10
9.18312e-08
-7.61681e-10
-3.48947e-09
9.64547e-08
-1.84767e-10
-9.00368e-09
6.44824e-08
4.66081e-10
-1.37576e-08
3.76058e-08
6.97716e-10
-1.6933e-08
2.19766e-08
4.16552e-10
-1.88602e-08
1.39437e-08
1.79984e-10
-2.03101e-08
9.74595e-09
1.79956e-10
-2.15126e-08
7.34593e-09
1.66476e-10
-2.2421e-08
5.75351e-09
1.34604e-10
-2.31517e-08
4.65761e-09
1.13326e-10
-2.37722e-08
3.82943e-09
1.00114e-10
-2.43163e-08
3.16318e-09
9.02776e-11
-2.48035e-08
2.60541e-09
8.24754e-11
-2.52417e-08
2.12165e-09
7.42488e-11
-2.56415e-08
1.70644e-09
6.70162e-11
-2.60068e-08
1.34619e-09
5.90709e-11
-2.63396e-08
1.03785e-09
5.04981e-11
-2.66404e-08
7.84436e-10
4.08011e-11
-2.69081e-08
5.91062e-10
2.97383e-11
-2.71398e-08
4.70594e-10
1.7249e-11
-2.73292e-08
4.4053e-10
3.31758e-12
-2.74669e-08
5.20749e-10
-1.14014e-11
-2.7543e-08
7.30401e-10
-2.61184e-11
-2.75739e-08
1.06654e-09
-3.60168e-11
-2.75478e-08
1.46683e-09
-2.13412e-11
-2.74478e-08
2.04057e-09
-2.15183e-11
-2.7346e-08
2.66846e-09
8.09943e-12
-2.72442e-08
3.2159e-09
7.23032e-11
-2.71734e-08
3.52411e-09
1.68904e-10
-2.71672e-08
3.31109e-09
3.14264e-10
-2.71667e-08
2.30346e-09
4.7398e-10
-2.72731e-08
4.10822e-10
6.63573e-10
-2.73433e-08
-4.13643e-09
9.62865e-10
-2.71521e-08
-1.1136e-08
1.11277e-09
-2.62777e-08
-2.1208e-08
1.12456e-09
-2.42156e-08
-3.47076e-08
9.1892e-10
-1.98881e-08
-5.02033e-08
1.56214e-10
-1.30571e-08
-6.40509e-08
-4.30114e-10
-5.51132e-09
-6.88234e-08
-2.6303e-10
-4.72269e-08
-1.17656e-10
6.62216e-10
9.17204e-08
-5.5138e-10
-2.33091e-09
9.94778e-08
-3.00309e-11
-7.16821e-09
6.88581e-08
4.61514e-10
-1.15365e-08
4.14167e-08
5.57369e-10
-1.45912e-08
2.46131e-08
4.1816e-10
-1.66224e-08
1.56246e-08
3.50323e-10
-1.78409e-08
1.07966e-08
1.6784e-10
-1.87606e-08
8.1103e-09
1.55256e-10
-1.95436e-08
6.39189e-09
1.44574e-10
-2.01408e-08
5.14146e-09
1.13311e-10
-2.0638e-08
4.22749e-09
9.90665e-11
-2.10784e-08
3.51449e-09
8.90687e-11
-2.14796e-08
2.92565e-09
8.09404e-11
-2.1849e-08
2.41889e-09
7.21007e-11
-2.2198e-08
1.9897e-09
6.57389e-11
-2.25299e-08
1.61976e-09
5.83034e-11
-2.28441e-08
1.30167e-09
5.03716e-11
-2.31405e-08
1.03916e-09
4.1686e-11
-2.34152e-08
8.3404e-10
3.16514e-11
-2.36624e-08
6.97476e-10
2.02684e-11
-2.38728e-08
6.43534e-10
7.45172e-12
-2.40352e-08
6.89259e-10
-6.19397e-12
-2.41366e-08
8.51122e-10
-1.9301e-11
-2.4177e-08
1.13394e-09
-2.70642e-11
-2.41916e-08
1.48848e-09
-7.09573e-12
-2.40893e-08
1.96585e-09
-2.75506e-11
-2.39565e-08
2.52563e-09
9.96152e-12
-2.38035e-08
2.99757e-09
6.52247e-11
-2.36588e-08
3.22141e-09
1.57984e-10
-2.3561e-08
2.91703e-09
2.9617e-10
-2.35163e-08
1.80375e-09
4.54971e-10
-2.34841e-08
-2.56392e-10
6.34964e-10
-2.35719e-08
-5.02116e-09
9.72544e-10
-2.35132e-08
-1.23483e-08
1.15356e-09
-2.29897e-08
-2.30014e-08
1.26983e-09
-2.15298e-08
-3.73199e-08
1.15242e-09
-1.82125e-08
-5.4146e-08
6.25468e-10
-1.21352e-08
-6.97815e-08
-3.46811e-10
-5.22351e-09
-7.55451e-08
-1.9e-10
-5.24152e-08
-3.51973e-11
9.32425e-10
9.1198e-08
-4.10076e-10
-1.43415e-09
1.01753e-07
9.11053e-11
-5.67028e-09
7.26028e-08
4.91461e-10
-9.71192e-09
4.48554e-08
6.02915e-10
-1.26631e-08
2.70309e-08
5.33343e-10
-1.45716e-08
1.71648e-08
3.68134e-10
-1.58029e-08
1.17981e-08
2.29866e-10
-1.65363e-08
8.70675e-09
1.36851e-10
-1.71005e-08
6.82336e-09
1.32734e-10
-1.7537e-08
5.48031e-09
9.75478e-11
-1.78786e-08
4.48379e-09
8.523e-11
-1.81915e-08
3.74011e-09
8.72672e-11
-1.84786e-08
3.1339e-09
7.88601e-11
-1.87476e-08
2.6206e-09
6.72569e-11
-1.90127e-08
2.1925e-09
6.22384e-11
-1.92781e-08
1.83012e-09
5.51187e-11
-1.95412e-08
1.51675e-09
4.79465e-11
-1.98023e-08
1.2595e-09
4.07618e-11
-2.00553e-08
1.05489e-09
3.21357e-11
-2.02931e-08
9.12734e-10
2.24923e-11
-2.05049e-08
8.43758e-10
1.15549e-11
-2.06777e-08
8.62231e-10
-1.69155e-13
-2.07964e-08
9.81157e-10
-1.13682e-11
-2.08528e-08
1.20974e-09
-1.94632e-11
-2.08793e-08
1.51733e-09
-2.35167e-12
-2.07966e-08
1.90299e-09
-1.98426e-11
-2.06569e-08
2.37278e-09
1.30432e-11
-2.04734e-08
2.75279e-09
6.12729e-11
-2.02788e-08
2.88028e-09
1.46487e-10
-2.01127e-08
2.48291e-09
2.67965e-10
-2.00452e-08
1.28753e-09
4.4868e-10
-1.99283e-08
-9.6298e-10
5.89666e-10
-2.00168e-08
-5.85903e-09
9.26349e-10
-2.00593e-08
-1.34153e-08
1.10942e-09
-1.9775e-08
-2.4508e-08
1.22239e-09
-1.87706e-08
-3.95573e-08
1.23298e-09
-1.63353e-08
-5.7635e-08
1.05374e-09
-1.11311e-08
-7.48362e-08
-1.49395e-10
-4.89445e-09
-8.1669e-08
-1.12815e-10
-5.73157e-08
6.06364e-12
1.08778e-09
9.03747e-08
-2.64522e-10
-8.01253e-10
1.03477e-07
1.6535e-10
-4.5411e-09
7.58795e-08
4.63086e-10
-8.29618e-09
4.80583e-08
5.52163e-10
-1.11311e-08
2.94063e-08
4.59431e-10
-1.2922e-08
1.86671e-08
2.88583e-10
-1.40289e-08
1.2695e-08
2.09936e-10
-1.47105e-08
9.2176e-09
1.70705e-10
-1.50775e-08
7.09211e-09
9.82674e-11
-1.53365e-08
5.64216e-09
9.7032e-11
-1.55271e-08
4.58821e-09
8.621e-11
-1.56817e-08
3.81802e-09
7.66309e-11
-1.58246e-08
3.21224e-09
6.46216e-11
-1.59671e-08
2.70872e-09
5.43219e-11
-1.61249e-08
2.29377e-09
5.65648e-11
-1.63021e-08
1.95582e-09
5.1458e-11
-1.64877e-08
1.65878e-09
4.35565e-11
-1.66859e-08
1.41966e-09
3.79962e-11
-1.68897e-08
1.22798e-09
3.07542e-11
-1.70918e-08
1.09165e-09
2.31164e-11
-1.72809e-08
1.01844e-09
1.44031e-11
-1.74435e-08
1.01972e-09
5.10769e-12
-1.7565e-08
1.10653e-09
-3.88069e-12
-1.76309e-08
1.28641e-09
-1.08137e-11
-1.7642e-08
1.53881e-09
-1.03851e-11
-1.75845e-08
1.84518e-09
2.60676e-13
-1.7446e-08
2.21621e-09
1.79421e-11
-1.72476e-08
2.49258e-09
6.1851e-11
-1.70196e-08
2.51198e-09
1.40247e-10
-1.67983e-08
2.02463e-09
2.36847e-10
-1.67512e-08
7.56367e-10
4.84047e-10
-1.65455e-08
-1.68572e-09
5.16983e-10
-1.66178e-08
-6.66505e-09
8.78293e-10
-1.67477e-08
-1.43763e-08
1.0909e-09
-1.67176e-08
-2.58207e-08
1.28258e-09
-1.61128e-08
-4.13817e-08
1.2196e-09
-1.42524e-08
-6.04534e-08
9.57954e-10
-1.00447e-08
-7.91701e-08
1.26186e-10
-4.53469e-09
-8.71589e-08
-2.00828e-11
-6.18759e-08
2.54978e-11
1.14553e-09
8.94038e-08
-1.74574e-10
-3.43604e-10
1.04768e-07
1.97744e-10
-3.6453e-09
7.87578e-08
4.23336e-10
-7.12162e-09
5.10391e-08
4.95467e-10
-9.80523e-09
3.17048e-08
3.85132e-10
-1.15511e-08
2.01302e-08
2.82686e-10
-1.25889e-08
1.34924e-08
2.40379e-10
-1.31395e-08
9.60643e-09
1.61767e-10
-1.33897e-08
7.22651e-09
1.15675e-10
-1.34923e-08
5.64926e-09
9.55018e-11
-1.35358e-08
4.54517e-09
8.64857e-11
-1.353e-08
3.75004e-09
6.21864e-11
-1.35208e-08
3.14879e-09
5.42385e-11
-1.35319e-08
2.6681e-09
5.17671e-11
-1.35679e-08
2.28428e-09
4.54568e-11
-1.36308e-08
1.97856e-09
4.01311e-11
-1.37189e-08
1.71241e-09
3.44713e-11
-1.38358e-08
1.50273e-09
3.38386e-11
-1.39689e-08
1.33365e-09
2.74374e-11
-1.4112e-08
1.21291e-09
2.18051e-11
-1.42547e-08
1.14592e-09
1.5205e-11
-1.43838e-08
1.14051e-09
8.29176e-12
-1.44848e-08
1.20566e-09
1.80803e-12
-1.45385e-08
1.34454e-09
-4.49737e-12
-1.45367e-08
1.5425e-09
-5.46392e-12
-1.44835e-08
1.78328e-09
8.61971e-12
-1.4346e-08
2.05575e-09
2.29082e-11
-1.41438e-08
2.22732e-09
6.30585e-11
-1.39061e-08
2.13749e-09
1.36756e-10
-1.36637e-08
1.56426e-09
2.17915e-10
-1.35835e-08
2.46285e-10
4.2985e-10
-1.33772e-08
-2.39273e-09
5.00636e-10
-1.34679e-08
-7.37272e-09
7.98408e-10
-1.36932e-08
-1.51594e-08
1.00832e-09
-1.38681e-08
-2.67789e-08
1.13305e-09
-1.36171e-08
-4.28831e-08
1.25041e-09
-1.22907e-08
-6.28381e-08
1.05836e-09
-8.96435e-09
-8.28392e-08
3.42739e-10
-4.16001e-09
-9.20419e-08
7.87361e-11
-6.60807e-08
4.48357e-11
1.17002e-09
8.8344e-08
-1.10277e-10
1.43438e-11
1.0572e-07
2.03433e-10
-2.90025e-09
8.12862e-08
3.86242e-10
-6.10859e-09
5.3785e-08
4.62403e-10
-8.65758e-09
3.38614e-08
3.92355e-10
-1.03608e-08
2.1508e-08
3.25413e-10
-1.13467e-08
1.42378e-08
2.40434e-10
-1.18116e-08
9.91148e-09
1.59876e-10
-1.19561e-08
7.25668e-09
1.14312e-10
-1.19308e-08
5.53652e-09
8.73506e-11
-1.18256e-08
4.36931e-09
7.06381e-11
-1.1684e-08
3.55181e-09
5.66622e-11
-1.15416e-08
2.95841e-09
4.79677e-11
-1.14264e-08
2.5061e-09
4.68053e-11
-1.13381e-08
2.16155e-09
3.44756e-11
-1.12802e-08
1.88952e-09
3.11276e-11
-1.12636e-08
1.6661e-09
2.96817e-11
-1.12815e-08
1.49546e-09
2.51741e-11
-1.13277e-08
1.35816e-09
2.16634e-11
-1.13941e-08
1.26105e-09
1.82551e-11
-1.14711e-08
1.20889e-09
1.40266e-11
-1.15458e-08
1.20595e-09
9.2588e-12
-1.16042e-08
1.25846e-09
5.55251e-12
-1.16232e-08
1.36596e-09
-2.45059e-12
-1.16034e-08
1.51814e-09
4.54028e-12
-1.15328e-08
1.70242e-09
1.02261e-11
-1.13876e-08
1.88373e-09
2.67735e-11
-1.11807e-08
1.9574e-09
6.29334e-11
-1.09402e-08
1.76872e-09
1.28285e-10
-1.06968e-08
1.10984e-09
2.10993e-10
-1.05137e-08
-2.63038e-10
3.26155e-10
-1.03578e-08
-3.06312e-09
5.1445e-10
-1.04547e-08
-8.01503e-09
7.39233e-10
-1.0733e-08
-1.58331e-08
9.51872e-10
-1.10634e-08
-2.7568e-08
1.11946e-09
-1.10923e-08
-4.40136e-08
1.15945e-09
-1.0327e-08
-6.46021e-08
9.98821e-10
-7.82744e-09
-8.57726e-08
4.33829e-10
-3.74551e-09
-9.62461e-08
1.22279e-10
-6.9875e-08
4.88311e-11
1.17537e-09
8.72305e-08
-6.19104e-11
3.03096e-10
1.06389e-07
2.03547e-10
-2.26777e-09
8.35054e-08
3.51638e-10
-5.22893e-09
5.63188e-08
4.27303e-10
-7.65124e-09
3.59077e-08
3.75888e-10
-9.28199e-09
2.28256e-08
3.13074e-10
-1.02019e-08
1.49427e-08
2.14915e-10
-1.06154e-08
1.01847e-08
1.40325e-10
-1.06899e-08
7.22265e-09
1.08486e-10
-1.05699e-08
5.33642e-09
8.01202e-11
-1.03524e-08
4.09061e-09
6.11351e-11
-1.00952e-08
3.24746e-09
4.71128e-11
-9.83579e-09
2.6616e-09
3.74599e-11
-9.60179e-09
2.2394e-09
3.2716e-11
-9.39971e-09
1.93287e-09
2.66094e-11
-9.23648e-09
1.70228e-09
2.40182e-11
-9.1178e-09
1.52415e-09
2.329e-11
-9.0325e-09
1.39277e-09
1.73893e-11
-8.98388e-09
1.29248e-09
1.70571e-11
-8.96331e-09
1.22626e-09
1.42102e-11
-8.96084e-09
1.19597e-09
1.04464e-11
-8.96495e-09
1.20218e-09
7.86546e-12
-8.96161e-09
1.25002e-09
5.07974e-12
-8.93327e-09
1.33685e-09
7.41746e-13
-8.87655e-09
1.45427e-09
7.11267e-12
-8.77189e-09
1.58485e-09
1.28803e-11
-8.60584e-09
1.68893e-09
2.87061e-11
-8.38566e-09
1.67629e-09
6.08824e-11
-8.13518e-09
1.40118e-09
1.17021e-10
-7.88999e-09
6.67686e-10
1.96912e-10
-7.65782e-09
-7.83379e-10
2.88141e-10
-7.53772e-09
-3.65086e-09
4.67606e-10
-7.65318e-09
-8.56065e-09
6.61051e-10
-7.99975e-09
-1.63426e-08
8.56102e-10
-8.47032e-09
-2.80976e-08
1.00015e-09
-8.82175e-09
-4.466e-08
9.97772e-10
-8.55348e-09
-6.58642e-08
9.93808e-10
-6.77934e-09
-8.81527e-08
6.05937e-10
-3.35742e-09
-9.98339e-08
1.65946e-10
-7.32917e-08
5.93083e-11
1.18136e-09
8.60749e-08
-2.5735e-11
5.58623e-10
1.06811e-07
2.00769e-10
-1.69691e-09
8.54352e-08
3.25692e-10
-4.42766e-09
5.86483e-08
4.01272e-10
-6.73636e-09
3.78539e-08
3.62533e-10
-8.31836e-09
2.41203e-08
2.87328e-10
-9.1815e-09
1.56035e-08
2.02396e-10
-9.53399e-09
1.03771e-08
1.60016e-10
-9.54479e-09
7.12214e-09
1.11292e-10
-9.3479e-09
5.0609e-09
7.86175e-11
-9.04335e-09
3.73063e-09
5.54273e-11
-8.69496e-09
2.85934e-09
3.97533e-11
-8.34292e-09
2.28029e-09
2.92803e-11
-8.01374e-09
1.88712e-09
2.31184e-11
-7.7174e-09
1.61848e-09
1.8067e-11
-7.4609e-09
1.43048e-09
1.53071e-11
-7.24745e-09
1.29696e-09
1.37514e-11
-7.07175e-09
1.2058e-09
1.12851e-11
-6.93309e-09
1.14353e-09
1.02895e-11
-6.82493e-09
1.10932e-09
8.76424e-12
-6.73781e-09
1.10227e-09
6.56497e-12
-6.66273e-09
1.122e-09
5.08074e-12
-6.58651e-09
1.17062e-09
3.16438e-12
-6.4983e-09
1.24455e-09
4.05446e-12
-6.38521e-09
1.33442e-09
6.73621e-12
-6.234e-09
1.42023e-09
1.33762e-11
-6.03393e-09
1.46096e-09
2.78464e-11
-5.78807e-09
1.37409e-09
5.63049e-11
-5.51496e-09
1.02586e-09
1.02161e-10
-5.26314e-09
2.30832e-10
1.84998e-10
-4.99927e-09
-1.29766e-09
2.50372e-10
-4.88636e-09
-4.17951e-09
4.15708e-10
-5.03018e-09
-9.00533e-09
5.88482e-10
-5.47203e-09
-1.66839e-08
7.83094e-10
-6.1819e-09
-2.83406e-08
9.52886e-10
-6.79082e-09
-4.499e-08
9.3894e-10
-6.86436e-09
-6.66776e-08
8.8695e-10
-5.76464e-09
-8.99017e-08
6.49311e-10
-2.97145e-09
-1.028e-07
1.72802e-10
-7.63149e-08
5.18554e-11
1.20913e-09
8.48696e-08
-3.93182e-12
8.35874e-10
1.06991e-07
1.9326e-10
-1.11891e-09
8.7072e-08
3.17943e-10
-3.61327e-09
6.07454e-08
3.97255e-10
-5.7867e-09
3.96524e-08
3.74847e-10
-7.29352e-09
2.53213e-08
3.05768e-10
-8.13822e-09
1.62077e-08
2.40425e-10
-8.46289e-09
1.05192e-08
1.82568e-10
-8.431e-09
6.96818e-09
1.22057e-10
-8.18363e-09
4.73154e-09
8.19974e-11
-7.8215e-09
3.31462e-09
5.38902e-11
-7.41119e-09
2.4137e-09
3.53519e-11
-6.9943e-09
1.84018e-09
2.32447e-11
-6.59673e-09
1.47374e-09
1.58406e-11
-6.23033e-09
1.2412e-09
1.0917e-11
-5.90172e-09
1.0938e-09
8.08032e-12
-5.61302e-09
1.00183e-09
6.44115e-12
-5.36082e-09
9.48695e-10
4.9128e-12
-5.14331e-09
9.21814e-10
4.20918e-12
-4.95463e-09
9.1727e-10
3.37291e-12
-4.78734e-09
9.32509e-10
2.46808e-12
-4.63348e-09
9.66228e-10
1.89702e-12
-4.48255e-09
1.01814e-09
1.52553e-12
-4.32395e-09
1.0834e-09
2.52355e-12
-4.14665e-09
1.15151e-09
5.56609e-12
-3.93917e-09
1.20047e-09
1.22397e-11
-3.6935e-09
1.1896e-09
2.56509e-11
-3.41166e-09
1.04048e-09
5.17304e-11
-3.11073e-09
6.338e-10
9.10817e-11
-2.82898e-09
-2.16642e-10
1.65691e-10
-2.55914e-09
-1.80362e-09
2.36084e-10
-2.4647e-09
-4.64661e-09
3.72641e-10
-2.61763e-09
-9.34628e-09
4.93864e-10
-3.10973e-09
-1.68552e-08
6.63426e-10
-3.9367e-09
-2.8352e-08
8.38425e-10
-4.88688e-09
-4.49491e-08
9.09297e-10
-5.41249e-09
-6.68866e-08
7.34647e-10
-4.79992e-09
-9.10762e-08
5.61992e-10
-2.61282e-09
-1.0526e-07
2.72789e-10
-7.89817e-08
5.3974e-11
1.28092e-09
8.35761e-08
1.25304e-11
1.16071e-09
1.06929e-07
1.81847e-10
-4.96245e-10
8.8406e-08
3.22847e-10
-2.74661e-09
6.25837e-08
4.1196e-10
-4.77623e-09
4.12747e-08
4.07275e-10
-6.21155e-09
2.64078e-08
3.48755e-10
-7.02505e-09
1.67425e-08
2.78656e-10
-7.3303e-09
1.06217e-08
2.02739e-10
-7.27742e-09
6.778e-09
1.37284e-10
-7.00481e-09
4.36891e-09
9.0032e-11
-6.61301e-09
2.8661e-09
5.6726e-11
-6.16982e-09
1.93596e-09
3.45811e-11
-5.71733e-09
1.36747e-09
2.0257e-11
-5.28049e-09
1.02555e-09
1.13804e-11
-4.87144e-09
8.2632e-10
5.85485e-12
-4.49606e-09
7.15791e-10
2.65355e-12
-4.15565e-09
6.60599e-10
8.43236e-13
-3.84762e-09
6.41006e-10
-3.24384e-13
-3.56923e-09
6.44302e-10
-8.69219e-13
-3.31536e-09
6.64654e-10
-1.25557e-12
-3.07971e-09
6.984e-10
-1.54956e-12
-2.85531e-09
7.43419e-10
-1.59684e-12
-2.63367e-09
7.97773e-10
-1.29701e-12
-2.40605e-09
8.55628e-10
1.37367e-13
-2.16322e-09
9.05712e-10
2.93534e-12
-1.89749e-09
9.25783e-10
8.9181e-12
-1.60426e-09
8.75907e-10
2.04191e-11
-1.28832e-09
6.83789e-10
4.07061e-11
-9.67964e-10
2.40126e-10
7.32795e-11
-6.64352e-10
-6.36725e-10
1.16434e-10
-4.20361e-10
-2.23428e-09
1.86642e-10
-3.45199e-10
-5.0205e-09
2.98712e-10
-5.34535e-10
-9.62289e-09
4.65938e-10
-1.05496e-09
-1.6957e-08
6.22228e-10
-1.93682e-09
-2.82062e-08
7.36027e-10
-3.04317e-09
-4.46402e-08
7.97448e-10
-3.894e-09
-6.67308e-08
6.95084e-10
-3.84027e-09
-9.16232e-08
4.93363e-10
-2.24256e-09
-1.07079e-07
2.21274e-10
-8.12566e-08
3.23983e-11
1.3564e-09
8.22007e-08
1.90124e-11
1.53288e-09
1.06585e-07
1.68058e-10
2.00903e-10
8.93921e-08
3.45909e-10
-1.79309e-09
6.41323e-08
4.45435e-10
-3.66507e-09
4.26896e-08
4.57105e-10
-5.02087e-09
2.73624e-08
4.01123e-10
-5.79937e-09
1.72001e-08
3.20946e-10
-6.08968e-09
1.0677e-08
2.34941e-10
-6.02871e-09
6.55664e-09
1.60394e-10
-5.74931e-09
3.98517e-09
1.04353e-10
-5.35072e-09
2.40309e-09
6.44572e-11
-4.90039e-09
1.44791e-09
3.77492e-11
-4.43964e-09
8.86193e-10
2.05609e-11
-3.99172e-09
5.67872e-10
9.79804e-12
-3.56783e-09
3.99297e-10
3.16796e-12
-3.17282e-09
3.21477e-10
-6.69601e-13
-2.80707e-09
2.97645e-10
-2.76624e-12
-2.46771e-09
3.05589e-10
-3.93368e-12
-2.15123e-09
3.32263e-10
-4.43482e-12
-1.85266e-09
3.70707e-10
-4.61844e-12
-1.56631e-09
4.16699e-10
-4.65613e-12
-1.28603e-09
4.67537e-10
-4.40903e-12
-1.00486e-09
5.20157e-10
-3.56775e-12
-7.1567e-10
5.67509e-10
-1.10008e-12
-4.12143e-10
6.00138e-10
2.01485e-12
-8.87729e-11
5.95808e-10
6.56706e-12
2.5725e-10
5.13607e-10
1.62338e-11
6.20777e-10
2.87542e-10
3.26762e-11
9.87211e-10
-1.87899e-10
6.15495e-11
1.33018e-09
-1.08399e-09
1.04261e-10
1.59679e-09
-2.67063e-09
1.69709e-10
1.68776e-09
-5.37695e-09
2.65464e-10
1.49268e-09
-9.81843e-09
3.90602e-10
9.06056e-10
-1.68946e-08
5.24214e-10
-1.16295e-10
-2.78255e-08
6.41677e-10
-1.44989e-09
-4.40134e-08
7.0684e-10
-2.69644e-09
-6.61405e-08
6.56278e-10
-3.11374e-09
-9.16714e-08
4.65536e-10
-1.95824e-09
-1.08444e-07
2.10245e-10
-8.32389e-08
2.41099e-11
1.51382e-09
8.06266e-08
6.01626e-11
2.0204e-09
1.05882e-07
1.9613e-10
1.02398e-09
9.0042e-08
3.46403e-10
-7.03456e-10
6.53698e-08
4.89881e-10
-2.40917e-09
4.38748e-08
5.20455e-10
-3.67853e-09
2.81641e-08
4.67679e-10
-4.41969e-09
1.75626e-08
3.78578e-10
-4.69735e-09
1.06756e-08
2.79137e-10
-4.63564e-09
6.30373e-09
1.91212e-10
-4.36241e-09
3.5873e-09
1.24661e-10
-3.97473e-09
1.93868e-09
7.67704e-11
-3.53837e-09
9.67026e-10
4.45635e-11
-3.09268e-09
4.16602e-10
2.39462e-11
-2.65861e-09
1.22941e-10
1.09023e-11
-2.24606e-09
-1.61948e-11
2.98575e-12
-1.85837e-09
-6.4706e-11
-1.47512e-12
-1.49408e-09
-6.24975e-11
-4.12723e-12
-1.1494e-09
-3.34552e-11
-5.61483e-12
-8.20014e-10
9.10261e-12
-6.21802e-12
-5.00846e-10
5.77084e-11
-6.16666e-12
-1.86691e-10
1.08648e-10
-6.10733e-12
1.27698e-10
1.59151e-10
-6.0145e-12
4.48034e-10
2.05273e-10
-5.46894e-12
7.7983e-10
2.40849e-10
-5.16155e-12
1.12889e-09
2.53795e-10
-2.74667e-12
1.50021e-09
2.21189e-10
3.25199e-12
1.89403e-09
1.06869e-10
1.28763e-11
2.30372e-09
-1.50147e-10
2.79606e-11
2.71375e-09
-6.48456e-10
5.04884e-11
3.09085e-09
-1.54763e-09
8.65122e-11
3.37742e-09
-3.09908e-09
1.41846e-10
3.47665e-09
-5.69764e-09
2.21447e-10
3.2658e-09
-9.93381e-09
3.2624e-10
2.6249e-09
-1.66971e-08
4.43435e-10
1.49354e-09
-2.72423e-08
5.48178e-10