/*--------------------------------*- C++ -*----------------------------------*\
  =========                 |
  \\      /  F ield         | OpenFOAM: The Open Source CFD Toolbox
   \\    /   O peration     | Website:  https://openfoam.org
    \\  /    A nd           | Version:  12
     \\/     M anipulation  |
\*---------------------------------------------------------------------------*/
FoamFile
{
    format      ascii;
    class       volVectorField;
    location    "450";
    object      U;
}
// * * * * * * * * * * * * * * * * * * * * * * * * * * * * * * * * * * * * * //

dimensions      [0 1 -1 0 0 0 0];

internalField   nonuniform List<vector> 
8000
(
(-0.00187703 0.00191554 -0.000274641)
(-0.00477149 0.000731474 -0.000358016)
(-0.00515083 9.18469e-05 -0.00017458)
(-0.00492582 -0.000132408 -8.86684e-05)
(-0.00453631 -0.000122903 -3.22601e-05)
(-0.00431622 -7.79314e-05 -1.96932e-05)
(-0.004172 -4.06278e-05 -1.31831e-05)
(-0.00409482 -1.88104e-05 -1.277e-05)
(-0.0040481 -5.91845e-06 -1.2199e-05)
(-0.00402048 1.6678e-06 -1.23245e-05)
(-0.00400077 5.11098e-06 -1.23621e-05)
(-0.0039846 6.49887e-06 -1.2267e-05)
(-0.00397038 7.13587e-06 -1.18948e-05)
(-0.00395589 7.11086e-06 -1.1929e-05)
(-0.00393929 6.68612e-06 -1.16878e-05)
(-0.0039209 5.98722e-06 -1.13801e-05)
(-0.00390018 5.01751e-06 -1.10662e-05)
(-0.0038772 3.88971e-06 -1.06027e-05)
(-0.00385291 2.81346e-06 -9.99584e-06)
(-0.00382832 1.83033e-06 -9.33158e-06)
(-0.00380581 1.53502e-06 -8.38461e-06)
(-0.0037885 2.14577e-06 -7.41026e-06)
(-0.00377933 3.49535e-06 -5.7927e-06)
(-0.00378102 4.9511e-06 -4.34011e-06)
(-0.00379937 8.44391e-06 -3.50321e-06)
(-0.00383787 1.41088e-05 -2.86296e-06)
(-0.00390231 2.23482e-05 -3.03724e-06)
(-0.00399611 3.34876e-05 -4.41451e-06)
(-0.00412022 4.73033e-05 -7.62319e-06)
(-0.00427107 6.33252e-05 -1.30906e-05)
(-0.00443829 8.26565e-05 -2.13461e-05)
(-0.00460419 9.08946e-05 -3.13091e-05)
(-0.00471061 9.3435e-05 -5.06504e-05)
(-0.00470488 7.93271e-05 -7.42869e-05)
(-0.0045163 4.50609e-05 -9.66225e-05)
(-0.00407812 -1.97251e-05 -0.000122247)
(-0.00334009 -9.71732e-05 -0.000134787)
(-0.00235624 -0.000178155 -0.000128311)
(-0.00122226 -0.000239543 -9.4287e-05)
(-0.000260185 -0.000230022 -4.63022e-05)
(-0.00144126 0.00619515 -0.000282193)
(-0.00461542 0.00366562 -0.000400449)
(-0.00598463 0.000967206 -0.000185852)
(-0.00651425 -5.45736e-05 -0.000109134)
(-0.00654709 -0.000213011 -4.35785e-05)
(-0.00657063 -0.000153056 -2.57356e-05)
(-0.00656116 -8.44272e-05 -1.57396e-05)
(-0.00656339 -3.17704e-05 -1.35355e-05)
(-0.00656671 -3.71316e-06 -1.07865e-05)
(-0.00657363 9.99487e-06 -8.56543e-06)
(-0.0065759 1.54134e-05 -9.29616e-06)
(-0.0065729 1.80257e-05 -9.65331e-06)
(-0.00656787 1.78532e-05 -8.82204e-06)
(-0.00655876 1.46138e-05 -9.08376e-06)
(-0.00654387 9.94982e-06 -8.84926e-06)
(-0.00652469 5.07309e-06 -8.51304e-06)
(-0.00650094 9.40612e-09 -8.41475e-06)
(-0.00647317 -4.49161e-06 -8.15032e-06)
(-0.0064435 -7.2853e-06 -7.80179e-06)
(-0.00641398 -7.62125e-06 -7.66783e-06)
(-0.00638887 -4.0373e-06 -6.84908e-06)
(-0.00637276 3.51328e-06 -5.02869e-06)
(-0.00636876 1.37942e-05 -2.50468e-06)
(-0.00638394 3.37706e-05 -2.21459e-06)
(-0.00642449 6.2306e-05 -1.64352e-06)
(-0.00649612 9.96601e-05 -1.13666e-06)
(-0.00660403 0.000145736 -1.24398e-06)
(-0.00674965 0.000198468 -2.23157e-06)
(-0.00692899 0.000252521 -4.83033e-06)
(-0.00712729 0.000302373 -9.35354e-06)
(-0.00733407 0.000328194 -6.89736e-06)
(-0.00749807 0.000303535 -2.40204e-05)
(-0.00755099 0.00022394 -4.18333e-05)
(-0.00740263 3.4829e-05 -6.85708e-05)
(-0.0069763 -0.000228192 -0.000101665)
(-0.0061721 -0.000607862 -0.000144254)
(-0.00494186 -0.00099783 -0.000169639)
(-0.00339217 -0.0013265 -0.00017165)
(-0.00168674 -0.00144999 -0.000131782)
(-0.000284757 -0.00103367 -6.53583e-05)
(-0.000774725 0.00967713 -0.000307575)
(-0.00346397 0.00660514 -0.000325755)
(-0.00497183 0.00276246 -9.73681e-05)
(-0.0061104 0.000716969 -8.80912e-05)
(-0.00653598 0.000106243 -2.86089e-05)
(-0.00679788 1.62358e-05 -1.6936e-05)
(-0.00694336 2.09868e-05 -8.457e-06)
(-0.00704908 4.27606e-05 -6.52587e-06)
(-0.00712197 5.33758e-05 -5.07612e-06)
(-0.00717918 5.47631e-05 -4.43219e-06)
(-0.00722068 5.13239e-05 -5.53343e-06)
(-0.00725029 4.43806e-05 -4.27148e-06)
(-0.00727072 3.48605e-05 -2.60703e-06)
(-0.00727913 2.51194e-05 -3.57398e-06)
(-0.00727747 1.40557e-05 -3.93891e-06)
(-0.00727116 3.86614e-06 -3.35754e-06)
(-0.00725881 -6.27681e-06 -3.82522e-06)
(-0.00724087 -1.48132e-05 -3.82601e-06)
(-0.00722029 -1.91476e-05 -3.71407e-06)
(-0.00719957 -1.73741e-05 -3.75878e-06)
(-0.00718392 -8.98189e-06 -3.2063e-06)
(-0.00717387 3.68244e-06 -1.09307e-06)
(-0.00717556 3.0755e-05 -3.93375e-07)
(-0.0071988 7.28202e-05 -7.60911e-07)
(-0.00724272 0.000128911 -3.39179e-07)
(-0.00731541 0.000199256 -3.0506e-08)
(-0.00741858 0.000280671 4.04772e-08)
(-0.00755145 0.000366815 -2.29168e-07)
(-0.00770495 0.000445822 -1.99063e-06)
(-0.00787014 0.000500815 3.03632e-06)
(-0.00802905 0.000497889 6.63889e-06)
(-0.00811788 0.00041399 -8.64768e-06)
(-0.0081092 0.000205094 -1.38822e-05)
(-0.00788295 -0.000182932 -4.51307e-05)
(-0.00739514 -0.000692534 -6.59242e-05)
(-0.0065226 -0.00140625 -0.00012625)
(-0.00518312 -0.00211371 -0.000153527)
(-0.00353689 -0.002675 -0.000160693)
(-0.00174993 -0.00283568 -0.000125687)
(-0.000279758 -0.00193148 -6.00463e-05)
(-0.000338928 0.0121024 -0.000278746)
(-0.00244484 0.00928439 -0.000213654)
(-0.00401555 0.00432227 -0.000130283)
(-0.00512859 0.0017927 -5.22027e-05)
(-0.00591021 0.000634629 -1.5999e-05)
(-0.00629947 0.00031864 -7.22127e-06)
(-0.00656121 0.000216384 -2.83544e-06)
(-0.0067436 0.000179873 -1.25998e-06)
(-0.00687724 0.000155752 -2.19265e-07)
(-0.00698076 0.000134392 1.91227e-07)
(-0.00705994 0.000113549 -7.71661e-08)
(-0.00712077 9.06404e-05 1.02973e-07)
(-0.00716675 6.71979e-05 -3.57247e-07)
(-0.00719911 4.56008e-05 -1.02895e-06)
(-0.00722121 2.52065e-05 1.06112e-07)
(-0.00723529 6.56239e-06 1.0583e-06)
(-0.00723954 -8.62787e-06 -4.77067e-08)
(-0.00723568 -2.17958e-05 -1.04107e-06)
(-0.00722849 -2.70602e-05 -1.61407e-06)
(-0.00721915 -2.30058e-05 -1.66184e-06)
(-0.00721092 -1.28638e-05 -9.11487e-07)
(-0.00720772 4.52256e-06 6.62635e-07)
(-0.0072141 4.61867e-05 -5.34357e-07)
(-0.00723252 0.000106599 -4.90601e-07)
(-0.00726646 0.000183804 -5.27034e-07)
(-0.00732011 0.000279369 -3.7277e-08)
(-0.00739582 0.000385083 4.58615e-07)
(-0.00749166 0.000491495 1.22311e-06)
(-0.00760152 0.000580362 3.04356e-06)
(-0.00772616 0.000618149 1.40676e-05)
(-0.00783779 0.000578154 1.14166e-05)
(-0.00787803 0.000434337 1.18785e-05)
(-0.00786409 0.000110649 7.13142e-06)
(-0.00763358 -0.000460006 -3.33746e-05)
(-0.00719794 -0.00122945 -1.22247e-05)
(-0.00639198 -0.00225127 -0.000104041)
(-0.00510713 -0.00331014 -0.000121355)
(-0.00350281 -0.00405917 -0.000135291)
(-0.00175795 -0.0042504 -0.000113425)
(-0.000281508 -0.00284456 -5.41413e-05)
(-0.000100453 0.0137619 -0.000227623)
(-0.00165422 0.0114716 -0.000157653)
(-0.00318475 0.00591762 -0.000124214)
(-0.00419833 0.00289779 2.12478e-05)
(-0.00510084 0.00129905 4.08496e-06)
(-0.00558418 0.00069776 4.40606e-06)
(-0.00590535 0.000475573 3.36917e-06)
(-0.00613462 0.000364886 3.47e-06)
(-0.00630871 0.000295429 3.50336e-06)
(-0.00644579 0.000242127 3.42218e-06)
(-0.00655422 0.000197195 3.23762e-06)
(-0.006641 0.000156251 3.28823e-06)
(-0.0067107 0.000118884 3.0944e-06)
(-0.00676549 8.47044e-05 2.72093e-06)
(-0.00680815 5.28162e-05 2.65293e-06)
(-0.0068404 2.45636e-05 1.83536e-06)
(-0.00686352 1.74188e-06 1.31525e-06)
(-0.00687801 -1.49499e-05 -7.09373e-08)
(-0.00688709 -2.45405e-05 -3.44234e-07)
(-0.00688978 -2.54307e-05 6.04427e-07)
(-0.00688874 -1.64857e-05 1.21781e-06)
(-0.00689166 1.08781e-05 2.05132e-07)
(-0.0068995 6.10988e-05 -1.44368e-06)
(-0.00691157 0.000132317 -1.77741e-06)
(-0.00693183 0.000222161 -2.30682e-06)
(-0.00696261 0.000331953 -1.42476e-06)
(-0.00700629 0.000450807 -3.53125e-07)
(-0.00706145 0.000565754 2.99422e-06)
(-0.00713315 0.000653227 1.17113e-05)
(-0.00721497 0.000682756 1.99028e-05)
(-0.00728434 0.000606552 1.78811e-05)
(-0.00730654 0.000385284 2.61242e-05)
(-0.0073186 -2.2564e-05 5.29527e-05)
(-0.00718366 -0.000758964 4.33675e-06)
(-0.00682758 -0.00174645 -9.67977e-06)
(-0.00610912 -0.00305928 -5.57328e-05)
(-0.00496847 -0.00443208 -0.000143372)
(-0.00340807 -0.0054534 -9.42084e-05)
(-0.00176352 -0.00566149 -9.80762e-05)
(-0.000290971 -0.00377798 -4.99957e-05)
(3.8595e-05 0.0148436 -0.000172012)
(-0.00104574 0.0132263 -0.000101691)
(-0.00250368 0.00740154 6.76573e-06)
(-0.0035849 0.00368987 4.88733e-07)
(-0.00426035 0.00200834 2.33741e-05)
(-0.00484641 0.00111968 2.26979e-06)
(-0.00518264 0.000754955 8.75389e-06)
(-0.00543953 0.000572755 6.66828e-06)
(-0.00563368 0.000455813 6.49866e-06)
(-0.00579062 0.000369151 5.90376e-06)
(-0.00591771 0.000298503 5.51335e-06)
(-0.00602249 0.000237554 5.16817e-06)
(-0.00610931 0.000183916 4.76371e-06)
(-0.00618085 0.000136271 4.35621e-06)
(-0.00623976 9.38809e-05 4.05065e-06)
(-0.00628776 5.72732e-05 3.51914e-06)
(-0.00632588 2.68555e-05 2.92439e-06)
(-0.00635454 3.74158e-06 2.05818e-06)
(-0.00637482 -1.23639e-05 1.25734e-06)
(-0.00638887 -1.90704e-05 8.97428e-07)
(-0.0064005 -9.97257e-06 7.53364e-07)
(-0.00641045 2.0072e-05 -6.1796e-07)
(-0.00641671 7.39263e-05 -1.73117e-06)
(-0.00642419 0.000149171 -2.00372e-06)
(-0.00643143 0.000243549 -2.68198e-06)
(-0.00644122 0.000360684 -9.47611e-07)
(-0.00645972 0.000483953 7.93884e-08)
(-0.00648664 0.000598754 4.17279e-06)
(-0.00652629 0.000679537 1.32416e-05)
(-0.00657559 0.000693456 1.70666e-05)
(-0.00660364 0.000589822 2.19473e-05)
(-0.00666742 0.00031596 5.09782e-05)
(-0.00669934 -0.000176296 5.52664e-05)
(-0.00662749 -0.000985114 6.59847e-05)
(-0.0063219 -0.00225417 -2.7963e-07)
(-0.00578153 -0.00379925 1.10098e-05)
(-0.00470451 -0.00552945 -0.000128782)
(-0.00337008 -0.00674597 -9.67365e-05)
(-0.00172663 -0.00707622 -7.31457e-05)
(-0.000308012 -0.00472534 -4.89692e-05)
(0.000113245 0.0154915 -0.000127863)
(-0.000636604 0.0145776 -5.86745e-05)
(-0.00192887 0.00864946 3.11366e-05)
(-0.00301189 0.00456592 -8.06887e-07)
(-0.00362634 0.00257184 6.10552e-06)
(-0.00412314 0.00157053 1.50323e-05)
(-0.00450397 0.00104748 1.2684e-05)
(-0.0047586 0.00078737 1.02343e-05)
(-0.0049589 0.000623344 8.59134e-06)
(-0.00512031 0.000504043 7.61809e-06)
(-0.00525397 0.000408845 6.94307e-06)
(-0.00536649 0.000328978 6.40055e-06)
(-0.00546232 0.000260011 5.89194e-06)
(-0.00554398 0.00019942 5.37207e-06)
(-0.00561373 0.000146184 4.86145e-06)
(-0.00567303 0.000100019 4.24186e-06)
(-0.00572276 6.11801e-05 3.58192e-06)
(-0.00576346 3.05543e-05 2.7756e-06)
(-0.00579596 9.02066e-06 1.97413e-06)
(-0.00582209 -8.1587e-07 1.21709e-06)
(-0.00584304 5.60185e-06 3.42637e-07)
(-0.00585842 3.33955e-05 -7.49603e-07)
(-0.00586738 8.48734e-05 -1.76705e-06)
(-0.00587471 0.000162158 -1.21918e-06)
(-0.00587253 0.000252458 -4.74914e-06)
(-0.00586667 0.000364644 -2.95072e-06)
(-0.00586718 0.000493108 3.8655e-08)
(-0.00587241 0.000603088 5.68019e-06)
(-0.00588976 0.000679036 1.27082e-05)
(-0.00591814 0.000676834 2.03979e-05)
(-0.00592852 0.000566154 2.38304e-05)
(-0.00600639 0.000289367 6.84732e-05)
(-0.00604932 -0.000336257 4.65763e-05)
(-0.00597329 -0.00131946 7.01727e-05)
(-0.00576673 -0.00268966 4.35375e-05)
(-0.00535107 -0.0045228 2.59729e-05)
(-0.00447343 -0.00647981 -6.98743e-05)
(-0.0032346 -0.0079996 -7.3109e-05)
(-0.00171106 -0.00847152 -5.39802e-05)
(-0.000311787 -0.00567973 -4.66526e-05)
(0.000152807 0.0158543 -9.61294e-05)
(-0.000350032 0.0156267 -2.91986e-05)
(-0.00145174 0.00976754 3.09875e-05)
(-0.00247435 0.00540171 4.25746e-05)
(-0.00313233 0.00305326 2.51884e-05)
(-0.00354383 0.00195885 2.51192e-05)
(-0.00389422 0.00132193 1.84436e-05)
(-0.00414589 0.000989385 1.26853e-05)
(-0.004334 0.000782428 1.03135e-05)
(-0.00448719 0.00063422 8.6886e-06)
(-0.0046153 0.00051773 7.74907e-06)
(-0.00472506 0.000421438 7.0103e-06)
(-0.00482078 0.000339307 6.41187e-06)
(-0.00490455 0.000267645 5.82233e-06)
(-0.00497829 0.000205259 5.27562e-06)
(-0.0050434 0.000151073 4.66392e-06)
(-0.00510046 0.000105067 3.99844e-06)
(-0.00514995 6.79703e-05 3.22201e-06)
(-0.00519221 4.09253e-05 2.35707e-06)
(-0.00522789 2.65507e-05 1.42012e-06)
(-0.00525702 2.88012e-05 3.84929e-07)
(-0.00527875 5.19499e-05 -7.29127e-07)
(-0.00529207 0.000100204 -1.95611e-06)
(-0.00529868 0.000164731 -1.59017e-06)
(-0.00529387 0.000252816 -3.94161e-06)
(-0.00528095 0.000369281 -2.81487e-06)
(-0.00527044 0.000481157 -4.20438e-07)
(-0.00526154 0.000592114 5.68786e-06)
(-0.00526033 0.000659883 1.23195e-05)
(-0.00527449 0.000643776 2.2696e-05)
(-0.00527881 0.000513808 2.96836e-05)
(-0.00531656 0.000202326 5.25042e-05)
(-0.00534657 -0.000475313 6.68493e-05)
(-0.00532866 -0.00156169 7.90837e-05)
(-0.00519361 -0.00309892 6.8059e-05)
(-0.00488426 -0.00513875 5.30419e-05)
(-0.00420756 -0.0073822 -3.25406e-05)
(-0.00305262 -0.00924229 -5.65294e-05)
(-0.00165512 -0.00981615 -3.71486e-05)
(-0.000311046 -0.00662957 -4.12693e-05)
(0.000177363 0.0160177 -7.23657e-05)
(-0.000141144 0.0164235 -5.19654e-06)
(-0.00108218 0.0107238 4.34743e-05)
(-0.00202016 0.00613733 5.9554e-05)
(-0.00269686 0.00354758 3.49487e-05)
(-0.00310945 0.0022327 1.38381e-05)
(-0.00336673 0.00158901 1.45393e-05)
(-0.00360254 0.00117507 1.33501e-05)
(-0.00377737 0.000925677 1.07107e-05)
(-0.00391354 0.000750977 8.99749e-06)
(-0.00402697 0.000616475 7.95835e-06)
(-0.00412478 0.000506961 7.16589e-06)
(-0.00421198 0.000414553 6.58542e-06)
(-0.00429008 0.000334359 5.92473e-06)
(-0.00436062 0.000265128 5.38134e-06)
(-0.00442522 0.000204982 4.77527e-06)
(-0.00448403 0.000153618 4.12965e-06)
(-0.00453737 0.000111605 3.40157e-06)
(-0.00458516 8.0011e-05 2.56877e-06)
(-0.00462717 6.11748e-05 1.62727e-06)
(-0.00466261 5.83696e-05 5.60069e-07)
(-0.00469022 7.52589e-05 -5.65702e-07)
(-0.00470746 0.000114938 -1.82075e-06)
(-0.00471554 0.000177192 -2.76937e-06)
(-0.00471656 0.000249956 -1.52218e-06)
(-0.00470378 0.000355421 -2.13643e-06)
(-0.00468392 0.000468159 -3.06648e-07)
(-0.00466673 0.000566828 4.23079e-06)
(-0.00464909 0.000626067 1.10074e-05)
(-0.00464517 0.000597077 2.19481e-05)
(-0.00464002 0.000434116 3.30298e-05)
(-0.00465398 0.000124868 4.88573e-05)
(-0.0046713 -0.000631993 7.12607e-05)
(-0.00467563 -0.00179605 8.40492e-05)
(-0.00459633 -0.0034604 8.51644e-05)
(-0.00437383 -0.00568571 7.17417e-05)
(-0.00386405 -0.0082001 1.16539e-05)
(-0.00286517 -0.010382 -4.42094e-05)
(-0.00158515 -0.0110962 -2.58764e-05)
(-0.0003072 -0.00755844 -3.52697e-05)
(0.000185222 0.0160358 -5.72635e-05)
(-5.63938e-06 0.0170256 4.77376e-06)
(-0.000813512 0.011537 4.04774e-05)
(-0.00165888 0.0068145 4.54323e-05)
(-0.00230073 0.00401011 3.33247e-05)
(-0.00271409 0.00254775 3.04682e-05)
(-0.00298554 0.00175825 1.32838e-05)
(-0.00314466 0.00134605 1.25763e-05)
(-0.00329682 0.00104782 1.15947e-05)
(-0.00341137 0.000846385 9.00649e-06)
(-0.00350221 0.000696574 7.91171e-06)
(-0.00358065 0.000577679 7.04768e-06)
(-0.00365195 0.00047874 6.42924e-06)
(-0.00371707 0.000392882 5.71254e-06)
(-0.00377746 0.000319653 5.24682e-06)
(-0.00383522 0.000256228 4.68883e-06)
(-0.00388981 0.000201878 4.08409e-06)
(-0.00394147 0.000157052 3.43389e-06)
(-0.00398983 0.000122396 2.6758e-06)
(-0.00403405 9.99644e-05 1.81718e-06)
(-0.00407291 9.24555e-05 8.3616e-07)
(-0.00410455 0.000103032 -2.36689e-07)
(-0.00412708 0.000134871 -1.29937e-06)
(-0.00413696 0.000188176 -2.30465e-06)
(-0.00414278 0.0002516 -9.84734e-08)
(-0.00413568 0.000342856 -2.57647e-06)
(-0.00411144 0.00044504 1.35443e-07)
(-0.00408737 0.000533053 3.90264e-06)
(-0.00405957 0.000579042 1.0554e-05)
(-0.00403819 0.000534861 2.07653e-05)
(-0.00402534 0.000352476 3.24916e-05)
(-0.00402077 1.52221e-05 4.63463e-05)
(-0.00402172 -0.000784527 7.28973e-05)
(-0.00403961 -0.00201327 8.71763e-05)
(-0.00400072 -0.00378888 9.68127e-05)
(-0.00384725 -0.0061661 8.78049e-05)
(-0.00349751 -0.00892169 5.28017e-05)
(-0.00264673 -0.0114222 -4.02452e-05)
(-0.00149639 -0.0122929 -2.1306e-05)
(-0.000295644 -0.00845956 -2.72762e-05)
(0.0001864 0.015985 -4.83104e-05)
(9.22964e-05 0.0174894 1.2984e-05)
(-0.000598254 0.0122455 4.21502e-05)
(-0.00136168 0.00744851 4.9401e-05)
(-0.00197695 0.004452 4.34685e-05)
(-0.00237084 0.00282705 2.92139e-05)
(-0.00263624 0.00194869 1.82639e-05)
(-0.00279155 0.00144175 1.05499e-05)
(-0.00289243 0.00114721 1.06482e-05)
(-0.00298068 0.00091976 7.56631e-06)
(-0.00304349 0.000755283 6.68441e-06)
(-0.00309772 0.000628051 6.80544e-06)
(-0.00314866 0.000524795 6.3375e-06)
(-0.00319583 0.000436706 5.32231e-06)
(-0.00324021 0.000362635 4.94815e-06)
(-0.00328547 0.000299206 4.40304e-06)
(-0.00333017 0.000244362 3.84472e-06)
(-0.00337462 0.000199111 3.31796e-06)
(-0.00341839 0.000163406 2.66199e-06)
(-0.00346018 0.000139002 1.93609e-06)
(-0.0034986 0.000128008 1.10047e-06)
(-0.00353144 0.000133091 1.79061e-07)
(-0.00355674 0.000156728 -7.02299e-07)
(-0.00356994 0.00020015 -1.64846e-06)
(-0.00357766 0.000258377 1.10282e-07)
(-0.0035739 0.000330406 -1.8547e-06)
(-0.00355196 0.000419693 5.66908e-07)
(-0.00352359 0.000493232 3.82622e-06)
(-0.00349015 0.000523756 1.0106e-05)
(-0.00345498 0.000463557 1.88108e-05)
(-0.0034375 0.000265665 3.26373e-05)
(-0.00342255 -0.000103691 4.303e-05)
(-0.0034113 -0.00093286 7.01265e-05)
(-0.00343829 -0.00220936 8.48174e-05)
(-0.00342734 -0.00407168 9.55891e-05)
(-0.003325 -0.00658235 9.27263e-05)
(-0.0030952 -0.00955934 8.25717e-05)
(-0.00240614 -0.0123507 -1.82909e-05)
(-0.00139354 -0.0133899 -1.38236e-05)
(-0.000284683 -0.00931884 -2.36577e-05)
(0.000179682 0.0158592 -3.58859e-05)
(0.000154264 0.017838 1.76887e-05)
(-0.000438989 0.0128542 3.83676e-05)
(-0.00113452 0.00801981 4.39958e-05)
(-0.00171773 0.00485989 3.54456e-05)
(-0.00210662 0.00308108 2.20787e-05)
(-0.00233747 0.00211026 1.70498e-05)
(-0.00248604 0.00154858 1.39235e-05)
(-0.00256826 0.00119956 7.49913e-06)
(-0.00261663 0.000962555 7.69342e-06)
(-0.00265456 0.000784391 6.78764e-06)
(-0.0026819 0.00065664 6.06543e-06)
(-0.00270682 0.000551533 5.08737e-06)
(-0.00273045 0.000463199 4.22528e-06)
(-0.00275508 0.000389944 4.38958e-06)
(-0.00278386 0.000328557 4.15665e-06)
(-0.00281461 0.000275887 3.4716e-06)
(-0.00284705 0.000232885 3.06435e-06)
(-0.00288146 0.000198343 2.50428e-06)
(-0.00291612 0.000173943 1.93256e-06)
(-0.00294973 0.000161246 1.26864e-06)
(-0.00297995 0.000162467 5.51616e-07)
(-0.00300451 0.000179637 -1.41582e-07)
(-0.00302042 0.000214408 -7.18119e-07)
(-0.00302648 0.000262271 -9.23569e-07)
(-0.0030232 0.000321326 -8.37107e-08)
(-0.00300587 0.000393407 1.01861e-06)
(-0.00297493 0.000449917 4.03542e-06)
(-0.0029392 0.000462857 9.96292e-06)
(-0.00289156 0.000387133 1.63642e-05)
(-0.00287581 0.000173049 3.69083e-05)
(-0.00285428 -0.000225856 3.73491e-05)
(-0.0028286 -0.00107518 6.70845e-05)
(-0.00286068 -0.00238537 8.36687e-05)
(-0.0028794 -0.00431813 0.000101083)
(-0.00283151 -0.00693744 9.56428e-05)
(-0.00267709 -0.010104 7.41854e-05)
(-0.00213537 -0.0131525 7.55718e-06)
(-0.00128311 -0.0143799 -5.66062e-06)
(-0.000271538 -0.0101226 -2.06902e-05)
(0.000168192 0.0157049 -2.63614e-05)
(0.000191529 0.0181046 1.92605e-05)
(-0.000316506 0.0133933 3.463e-05)
(-0.000949776 0.00856038 3.97159e-05)
(-0.0014989 0.00527027 3.02614e-05)
(-0.0018744 0.00334304 2.27805e-05)
(-0.00209948 0.00225712 1.92979e-05)
(-0.00222926 0.00162355 1.2779e-05)
(-0.00229008 0.00123738 9.19207e-06)
(-0.00231537 0.000976988 7.52419e-06)
(-0.0023256 0.000792189 6.85152e-06)
(-0.00232807 0.000655864 4.92895e-06)
(-0.00232491 0.000551999 4.15538e-06)
(-0.00232385 0.000467041 4.10001e-06)
(-0.00232789 0.000397841 3.59548e-06)
(-0.00233578 0.000343282 3.16215e-06)
(-0.00234858 0.000293858 2.66813e-06)
(-0.00236587 0.000254347 2.71178e-06)
(-0.0023875 0.000223071 2.20182e-06)
(-0.00241107 0.000200613 1.78687e-06)
(-0.00243576 0.000188159 1.27891e-06)
(-0.00245927 0.000187342 7.49185e-07)
(-0.00247927 0.000199942 2.48687e-07)
(-0.00249311 0.000226825 -2.09059e-07)
(-0.00249663 0.000265418 -5.61979e-07)
(-0.0024926 0.000311633 5.96891e-07)
(-0.00247671 0.000366646 1.46595e-06)
(-0.00244516 0.000404867 4.26345e-06)
(-0.00240873 0.000398469 9.86606e-06)
(-0.00235784 0.000307362 1.48219e-05)
(-0.00233864 8.63705e-05 3.35075e-05)
(-0.00231009 -0.000351523 3.63151e-05)
(-0.0022883 -0.00120703 6.06837e-05)
(-0.00232761 -0.00253683 7.6544e-05)
(-0.00236438 -0.00451446 8.59171e-05)
(-0.00238237 -0.00721798 9.92197e-05)
(-0.00227437 -0.0105504 8.65714e-05)
(-0.00187855 -0.01384 2.51606e-05)
(-0.00116682 -0.015267 2.81152e-06)
(-0.000257575 -0.0108685 -1.80157e-05)
(0.000156733 0.015527 -2.21896e-05)
(0.000216617 0.0183043 1.8441e-05)
(-0.000217186 0.0138668 3.12067e-05)
(-0.000792522 0.00905973 3.70147e-05)
(-0.00130937 0.00565796 3.08337e-05)
(-0.0016714 0.00358999 2.58682e-05)
(-0.00189352 0.00238749 1.9106e-05)
(-0.0020101 0.00168168 1.27042e-05)
(-0.00205442 0.00124939 9.02057e-06)
(-0.00205987 0.000966469 6.85581e-06)
(-0.00204556 0.000771512 5.51293e-06)
(-0.00202299 0.000633041 4.4522e-06)
(-0.00199687 0.000530323 3.73008e-06)
(-0.00197375 0.000449931 3.70012e-06)
(-0.00195634 0.000387132 2.77815e-06)
(-0.00194304 0.000336582 2.37253e-06)
(-0.00193625 0.000294256 2.34242e-06)
(-0.00193644 0.000261954 1.9713e-06)
(-0.00194203 0.000235017 1.71363e-06)
(-0.00195172 0.000215911 1.46433e-06)
(-0.00196426 0.000205232 1.14974e-06)
(-0.00197751 0.000204161 7.76823e-07)
(-0.0019895 0.00021382 5.14403e-07)
(-0.00199649 0.000234795 -1.78792e-07)
(-0.00199593 0.000263798 2.67367e-07)
(-0.001989 0.000300564 7.81216e-07)
(-0.00197086 0.000338871 1.84899e-06)
(-0.00193884 0.000359475 4.4354e-06)
(-0.00190047 0.000335108 9.37433e-06)
(-0.00185381 0.000228919 1.52378e-05)
(-0.00182121 4.33719e-08 2.46601e-05)
(-0.00178475 -0.000471128 3.85433e-05)
(-0.00177517 -0.00132229 5.67445e-05)
(-0.00181157 -0.00266114 7.36335e-05)
(-0.00187174 -0.0046628 8.83225e-05)
(-0.00191424 -0.00745472 9.40755e-05)
(-0.00188054 -0.0109172 8.14157e-05)
(-0.00161325 -0.0144066 2.86833e-05)
(-0.00104124 -0.0160441 5.6482e-06)
(-0.000239378 -0.0115484 -1.65087e-05)
(0.000145817 0.0153389 -1.76045e-05)
(0.000233964 0.0184507 1.79369e-05)
(-0.000134455 0.0142844 2.82928e-05)
(-0.000657047 0.00952002 3.41572e-05)
(-0.00114338 0.00602201 2.93863e-05)
(-0.00149275 0.00382249 2.47212e-05)
(-0.00170089 0.00251801 1.66971e-05)
(-0.00181076 0.00173294 1.08966e-05)
(-0.00184413 0.00124916 8.504e-06)
(-0.00183559 0.000939221 6.24553e-06)
(-0.00180302 0.000731913 4.76673e-06)
(-0.00176036 0.000589054 3.67159e-06)
(-0.00171434 0.000487484 2.88168e-06)
(-0.00167097 0.000412192 2.54317e-06)
(-0.00163324 0.000356191 2.0815e-06)
(-0.00160117 0.000312906 1.85155e-06)
(-0.00157697 0.0002784 1.842e-06)
(-0.00155943 0.000252025 1.33476e-06)
(-0.00154778 0.000231595 1.35618e-06)
(-0.00154202 0.000217321 1.13564e-06)
(-0.00154028 0.000210109 8.30911e-07)
(-0.00154081 0.000210094 6.39817e-07)
(-0.00154126 0.000218489 4.37548e-07)
(-0.00153887 0.000234368 4.25292e-08)
(-0.00153166 0.000257576 5.30359e-07)
(-0.00151851 0.000284084 9.47132e-07)
(-0.00149536 0.000307994 2.05982e-06)
(-0.00146122 0.000312668 4.42317e-06)
(-0.00141971 0.00027223 8.61965e-06)
(-0.00137515 0.000152252 1.4663e-05)
(-0.00133471 -9.04298e-05 2.16756e-05)
(-0.00129665 -0.000579288 3.54157e-05)
(-0.00129419 -0.0014265 5.07101e-05)
(-0.00133402 -0.00276711 6.62014e-05)
(-0.00141517 -0.00478356 7.87257e-05)
(-0.0014826 -0.00761 7.95839e-05)
(-0.00153645 -0.0111654 8.21419e-05)
(-0.00136486 -0.014859 4.7032e-05)
(-0.000925596 -0.0167083 1.01665e-05)
(-0.000221575 -0.0121601 -1.38386e-05)
(0.000136946 0.0151421 -1.40295e-05)
(0.000248763 0.0185507 1.74085e-05)
(-6.07025e-05 0.0146506 2.62523e-05)
(-0.000533688 0.00994574 3.2173e-05)
(-0.000992331 0.00637028 2.84645e-05)
(-0.00132823 0.00404931 2.24131e-05)
(-0.0015353 0.0026319 1.59904e-05)
(-0.00162775 0.00177405 1.30304e-05)
(-0.00165427 0.00123804 8.78618e-06)
(-0.00163276 0.000898012 6.18701e-06)
(-0.00158617 0.000676216 4.32481e-06)
(-0.00152784 0.000528642 3.09384e-06)
(-0.00146605 0.000428392 2.2591e-06)
(-0.00140655 0.00035826 1.79389e-06)
(-0.00135235 0.000308749 1.39528e-06)
(-0.00130433 0.000272706 1.1649e-06)
(-0.00126389 0.000245924 1.05913e-06)
(-0.00123041 0.000226856 8.61651e-07)
(-0.00120332 0.000212859 7.96929e-07)
(-0.00118235 0.000204261 6.85299e-07)
(-0.00116576 0.00020098 5.10958e-07)
(-0.00115217 0.000203098 4.06012e-07)
(-0.0011395 0.000211135 2.42588e-07)
(-0.00112574 0.000224881 3.20181e-07)
(-0.00110881 0.000242261 4.84977e-07)
(-0.00108657 0.000260506 9.84727e-07)
(-0.00105644 0.000272424 2.01738e-06)
(-0.00101786 0.000263442 4.15856e-06)
(-0.000971165 0.000209545 7.48304e-06)
(-0.000926143 7.72359e-05 1.40632e-05)
(-0.000880469 -0.000177948 1.86579e-05)
(-0.00084078 -0.000673972 3.17627e-05)
(-0.000839319 -0.00151235 4.52812e-05)
(-0.000890724 -0.00284105 6.08445e-05)
(-0.00098952 -0.00484994 7.43193e-05)
(-0.00113 -0.00769181 7.31728e-05)
(-0.00119438 -0.0113641 7.34018e-05)
(-0.00113448 -0.0152244 5.83363e-05)
(-0.00080966 -0.0172689 1.12002e-05)
(-0.000203794 -0.0127072 -1.2915e-05)
(0.00013102 0.0149394 -1.19356e-05)
(0.000268079 0.018611 1.63119e-05)
(1.52337e-05 0.0149665 2.60429e-05)
(-0.000409442 0.0103345 3.22771e-05)
(-0.000836875 0.00669854 3.00244e-05)
(-0.00115698 0.00426929 2.46384e-05)
(-0.00135538 0.00274574 1.93685e-05)
(-0.00144773 0.00180229 1.43362e-05)
(-0.00146682 0.00121556 9.55827e-06)
(-0.00143738 0.000845143 6.41919e-06)
(-0.00138145 0.000608499 4.19475e-06)
(-0.00131269 0.000455874 2.74211e-06)
(-0.00124001 0.000356649 1.78563e-06)
(-0.00116903 0.00029133 1.2146e-06)
(-0.00110285 0.000248283 8.2841e-07)
(-0.00104271 0.00021954 6.04948e-07)
(-0.000989553 0.000200292 4.86074e-07)
(-0.000943014 0.000187991 3.59651e-07)
(-0.000902628 0.000180483 3.14996e-07)
(-0.000867894 0.00017728 2.51849e-07)
(-0.000837469 0.000178073 1.8189e-07)
(-0.000810151 0.000182699 1.42597e-07)
(-0.000784274 0.000191297 1.10768e-07)
(-0.00075803 0.000203067 1.82283e-07)
(-0.00072951 0.000216447 4.07486e-07)
(-0.000696833 0.000227677 9.12148e-07)
(-0.000657878 0.000229705 1.90013e-06)
(-0.000612549 0.000208666 3.91978e-06)
(-0.000560144 0.000142716 6.80625e-06)
(-0.000511173 1.45856e-06 1.28715e-05)
(-0.000460309 -0.000269419 1.80297e-05)
(-0.000422272 -0.000762136 2.88907e-05)
(-0.000426161 -0.00157935 3.82106e-05)
(-0.000475573 -0.00288352 5.15055e-05)
(-0.000596203 -0.00487052 6.61896e-05)
(-0.00075414 -0.00772067 7.27765e-05)
(-0.000916837 -0.0114437 6.03641e-05)
(-0.000923535 -0.0154689 4.69872e-05)
(-0.000694548 -0.017734 2.14778e-05)
(-0.000189707 -0.0131911 -1.14178e-05)
(0.000128967 0.0147221 -1.02954e-05)
(0.000298162 0.0186246 1.51556e-05)
(9.77504e-05 0.0152319 2.68313e-05)
(-0.000276868 0.0106811 3.38281e-05)
(-0.000671212 0.00699795 3.28146e-05)
(-0.000974827 0.00446848 2.7917e-05)
(-0.00116516 0.0028441 2.20165e-05)
(-0.00125486 0.00182394 1.59044e-05)
(-0.00127028 0.00118581 1.07461e-05)
(-0.00123705 0.000785074 7.03541e-06)
(-0.00117634 0.000533309 4.41037e-06)
(-0.00110214 0.00037546 2.67572e-06)
(-0.00102359 0.000277066 1.55157e-06)
(-0.000946197 0.00021612 8.62471e-07)
(-0.000872952 0.000179046 4.30618e-07)
(-0.000805176 0.000157001 1.81283e-07)
(-0.000743535 0.000144549 4.365e-08)
(-0.000687755 0.000138517 -4.98338e-08)
(-0.000637361 0.000136738 -8.80529e-08)
(-0.000591737 0.000138337 -1.16848e-07)
(-0.000549805 0.00014276 -1.40183e-07)
(-0.000510489 0.000149711 -1.43181e-07)
(-0.0004724 0.000158972 -1.26597e-07)
(-0.000434096 0.000169647 -2.07436e-08)
(-0.000393909 0.000179732 1.80709e-07)
(-0.000350438 0.000185349 6.34292e-07)
(-0.000302358 0.000179647 1.49348e-06)
(-0.000249592 0.000149649 3.02563e-06)
(-0.000193723 7.59108e-05 5.48691e-06)
(-0.000139477 -7.37666e-05 8.73821e-06)
(-8.91898e-05 -0.00034844 1.40755e-05)
(-5.67694e-05 -0.000832829 2.28799e-05)
(-6.43111e-05 -0.00163248 3.62735e-05)
(-0.000123137 -0.00290813 4.89662e-05)
(-0.000241853 -0.00486183 5.80875e-05)
(-0.000424482 -0.00769192 6.35048e-05)
(-0.000616501 -0.0114537 5.53089e-05)
(-0.000705649 -0.0156299 4.0175e-05)
(-0.000586841 -0.0181036 1.79076e-05)
(-0.00017007 -0.0136106 -1.17331e-05)
(0.000129414 0.0144938 -9.94416e-06)
(0.000327516 0.0186022 1.35434e-05)
(0.000194816 0.0154398 2.90495e-05)
(-0.000130999 0.0109796 3.67809e-05)
(-0.00048888 0.00726432 3.70714e-05)
(-0.000774115 0.00464724 3.21447e-05)
(-0.00095571 0.00293144 2.54506e-05)
(-0.00104219 0.0018385 1.85054e-05)
(-0.00105588 0.00115058 1.25764e-05)
(-0.00102156 0.000720555 8.14978e-06)
(-0.000959695 0.000454245 5.00543e-06)
(-0.000884311 0.000291506 2.91364e-06)
(-0.000804498 0.00019399 1.57041e-06)
(-0.000725501 0.000137118 7.33358e-07)
(-0.000650055 0.00010555 2.15127e-07)
(-0.000579366 8.95095e-05 -8.33869e-08)
(-0.000513874 8.29203e-05 -2.42546e-07)
(-0.000453243 8.21764e-05 -3.33582e-07)
(-0.000396895 8.50592e-05 -3.69965e-07)
(-0.00034413 9.04432e-05 -3.84284e-07)
(-0.000293968 9.76069e-05 -3.8734e-07)
(-0.000245439 0.000106106 -3.65505e-07)
(-0.000197354 0.000115493 -3.00048e-07)
(-0.000148614 0.000124605 -9.55338e-08)
(-9.76919e-05 0.000131689 1.45212e-07)
(-4.4021e-05 0.000133053 4.7537e-07)
(1.35795e-05 0.000121614 1.20726e-06)
(7.50875e-05 8.54814e-05 2.45636e-06)
(0.000138509 6.4109e-06 4.69737e-06)
(0.000200913 -0.000146446 8.04726e-06)
(0.000256341 -0.000421155 1.30986e-05)
(0.000291517 -0.0008946 2.05965e-05)
(0.000286787 -0.00167466 3.04057e-05)
(0.00022327 -0.0029154 4.105e-05)
(8.48953e-05 -0.00482019 5.06737e-05)
(-0.00012781 -0.00761632 5.68251e-05)
(-0.000365654 -0.0113934 5.36688e-05)
(-0.000550868 -0.015674 3.90892e-05)
(-0.00049718 -0.0183726 1.54558e-05)
(-0.000157721 -0.0139692 -1.20156e-05)
(0.000133041 0.014239 -6.24826e-06)
(0.000382669 0.0185108 1.64813e-05)
(0.000308586 0.0155889 2.92855e-05)
(3.8737e-05 0.0112268 4.07262e-05)
(-0.000282345 0.00749306 4.23697e-05)
(-0.000547377 0.00480151 3.75193e-05)
(-0.000719616 0.0030039 3.00548e-05)
(-0.000802702 0.00184419 2.19836e-05)
(-0.000815631 0.00111017 1.49814e-05)
(-0.00078193 0.000653173 9.71847e-06)
(-0.000721629 0.000373957 5.94882e-06)
(-0.000648468 0.000207438 3.4278e-06)