/*--------------------------------*- C++ -*----------------------------------*\
  =========                 |
  \\      /  F ield         | OpenFOAM: The Open Source CFD Toolbox
   \\    /   O peration     | Website:  https://openfoam.org
    \\  /    A nd           | Version:  12
     \\/     M anipulation  |
\*---------------------------------------------------------------------------*/
FoamFile
{
    format      ascii;
    class       volScalarField;
    location    "400";
    object      alphat;
}
// * * * * * * * * * * * * * * * * * * * * * * * * * * * * * * * * * * * * * //

dimensions      [1 -1 -1 0 0 0 0];

internalField   nonuniform List<scalar> 
8000
(
1.99277e-19
2.0279e-19
2.04732e-19
2.05729e-19
2.06272e-19
2.06627e-19
2.06902e-19
2.07136e-19
2.07343e-19
2.07531e-19
2.07704e-19
2.07863e-19
2.08012e-19
2.08151e-19
2.08282e-19
2.08406e-19
2.08524e-19
2.08637e-19
2.08745e-19
2.08848e-19
2.08948e-19
2.09045e-19
2.0914e-19
2.09232e-19
2.09323e-19
2.09412e-19
2.09501e-19
2.0959e-19
2.0968e-19
2.09772e-19
2.09868e-19
2.09968e-19
2.10075e-19
2.1019e-19
2.10317e-19
2.10457e-19
2.10612e-19
2.10786e-19
2.10977e-19
2.11201e-19
1.99142e-19
2.02805e-19
2.04786e-19
2.05783e-19
2.06309e-19
2.06649e-19
2.06913e-19
2.07137e-19
2.07338e-19
2.0752e-19
2.07687e-19
2.07842e-19
2.07987e-19
2.08123e-19
2.08252e-19
2.08374e-19
2.0849e-19
2.08601e-19
2.08707e-19
2.0881e-19
2.08909e-19
2.09004e-19
2.09097e-19
2.09188e-19
2.09276e-19
2.09362e-19
2.09448e-19
2.09532e-19
2.09617e-19
2.09702e-19
2.0979e-19
2.09882e-19
2.09981e-19
2.10089e-19
2.10213e-19
2.10354e-19
2.1052e-19
2.10712e-19
2.1093e-19
2.11196e-19
1.99104e-19
2.02719e-19
2.0472e-19
2.05742e-19
2.06272e-19
2.06604e-19
2.06856e-19
2.0707e-19
2.0726e-19
2.07433e-19
2.07594e-19
2.07743e-19
2.07884e-19
2.08017e-19
2.08143e-19
2.08263e-19
2.08377e-19
2.08487e-19
2.08592e-19
2.08694e-19
2.08791e-19
2.08885e-19
2.08975e-19
2.09063e-19
2.09146e-19
2.09227e-19
2.09304e-19
2.09379e-19
2.09452e-19
2.09523e-19
2.09596e-19
2.09672e-19
2.09756e-19
2.09855e-19
2.09976e-19
2.10128e-19
2.1032e-19
2.10555e-19
2.10831e-19
2.11171e-19
1.99041e-19
2.02542e-19
2.04546e-19
2.05595e-19
2.06138e-19
2.06465e-19
2.06707e-19
2.06909e-19
2.07088e-19
2.07253e-19
2.07406e-19
2.0755e-19
2.07686e-19
2.07816e-19
2.0794e-19
2.08059e-19
2.08172e-19
2.08282e-19
2.08387e-19
2.08487e-19
2.08584e-19
2.08677e-19
2.08765e-19
2.08848e-19
2.08927e-19
2.09e-19
2.09068e-19
2.0913e-19
2.09188e-19
2.09243e-19
2.09298e-19
2.09356e-19
2.09426e-19
2.09517e-19
2.09642e-19
2.09813e-19
2.10046e-19
2.10343e-19
2.10698e-19
2.11136e-19
1.98965e-19
2.02318e-19
2.043e-19
2.0537e-19
2.05926e-19
2.0625e-19
2.06481e-19
2.06669e-19
2.06837e-19
2.06991e-19
2.07136e-19
2.07274e-19
2.07406e-19
2.07533e-19
2.07655e-19
2.07772e-19
2.07885e-19
2.07995e-19
2.081e-19
2.08201e-19
2.08297e-19
2.08389e-19
2.08475e-19
2.08556e-19
2.0863e-19
2.08697e-19
2.08755e-19
2.08807e-19
2.08851e-19
2.08891e-19
2.0893e-19
2.08976e-19
2.09036e-19
2.09126e-19
2.09262e-19
2.09462e-19
2.09742e-19
2.1011e-19
2.10552e-19
2.11098e-19
1.98885e-19
2.02071e-19
2.04014e-19
2.05098e-19
2.05664e-19
2.05986e-19
2.06205e-19
2.06379e-19
2.06533e-19
2.06676e-19
2.06812e-19
2.06942e-19
2.07068e-19
2.0719e-19
2.07309e-19
2.07424e-19
2.07537e-19
2.07645e-19
2.07751e-19
2.07852e-19
2.07949e-19
2.0804e-19
2.08126e-19
2.08205e-19
2.08276e-19
2.08338e-19
2.08391e-19
2.08434e-19
2.08469e-19
2.08499e-19
2.08529e-19
2.08567e-19
2.08625e-19
2.0872e-19
2.08873e-19
2.09106e-19
2.09438e-19
2.09876e-19
2.10405e-19
2.1106e-19
1.98806e-19
2.01821e-19
2.03712e-19
2.048e-19
2.05376e-19
2.05696e-19
2.05905e-19
2.06066e-19
2.06206e-19
2.06335e-19
2.0646e-19
2.06581e-19
2.06699e-19
2.06815e-19
2.06929e-19
2.07041e-19
2.07151e-19
2.07258e-19
2.07363e-19
2.07463e-19
2.0756e-19
2.07652e-19
2.07738e-19
2.07816e-19
2.07886e-19
2.07947e-19
2.07997e-19
2.08036e-19
2.08067e-19
2.08092e-19
2.08119e-19
2.08157e-19
2.08217e-19
2.08321e-19
2.08496e-19
2.08763e-19
2.09144e-19
2.0965e-19
2.10263e-19
2.11023e-19
1.98731e-19
2.01576e-19
2.03406e-19
2.04493e-19
2.05079e-19
2.05401e-19
2.05602e-19
2.05751e-19
2.05877e-19
2.05993e-19
2.06105e-19
2.06215e-19
2.06324e-19
2.06432e-19
2.0654e-19
2.06646e-19
2.06752e-19
2.06856e-19
2.06958e-19
2.07057e-19
2.07153e-19
2.07245e-19
2.0733e-19
2.07409e-19
2.07479e-19
2.0754e-19
2.0759e-19
2.0763e-19
2.07661e-19
2.07687e-19
2.07715e-19
2.07757e-19
2.07823e-19
2.07941e-19
2.08136e-19
2.08436e-19
2.08865e-19
2.09433e-19
2.10125e-19
2.10987e-19
1.98661e-19
2.01342e-19
2.03109e-19
2.04189e-19
2.04785e-19
2.05113e-19
2.05311e-19
2.05451e-19
2.05565e-19
2.05668e-19
2.05768e-19
2.05866e-19
2.05964e-19
2.06062e-19
2.06161e-19
2.0626e-19
2.06359e-19
2.06458e-19
2.06556e-19
2.06652e-19
2.06746e-19
2.06836e-19
2.06921e-19
2.07e-19
2.07071e-19
2.07133e-19
2.07186e-19
2.07228e-19
2.07263e-19
2.07292e-19
2.07326e-19
2.07374e-19
2.0745e-19
2.07581e-19
2.07798e-19
2.08128e-19
2.08601e-19
2.09228e-19
2.09995e-19
2.10952e-19
1.98597e-19
2.01125e-19
2.02828e-19
2.039e-19
2.04505e-19
2.04841e-19
2.0504e-19
2.05175e-19
2.0528e-19
2.05372e-19
2.05459e-19
2.05546e-19
2.05632e-19
2.0572e-19
2.05808e-19
2.05899e-19
2.0599e-19
2.06081e-19
2.06173e-19
2.06264e-19
2.06354e-19
2.06441e-19
2.06524e-19
2.06603e-19
2.06674e-19
2.06738e-19
2.06793e-19
2.0684e-19
2.06879e-19
2.06915e-19
2.06955e-19
2.07012e-19
2.07099e-19
2.07245e-19
2.07481e-19
2.0784e-19
2.08353e-19
2.09034e-19
2.09871e-19
2.10919e-19
1.98539e-19
2.00926e-19
2.02567e-19
2.03629e-19
2.04245e-19
2.04591e-19
2.04795e-19
2.04928e-19
2.05027e-19
2.05111e-19
2.05188e-19
2.05263e-19
2.05338e-19
2.05415e-19
2.05493e-19
2.05573e-19
2.05654e-19
2.05737e-19
2.05821e-19
2.05905e-19
2.05989e-19
2.06071e-19
2.06151e-19
2.06227e-19
2.06298e-19
2.06363e-19
2.06421e-19
2.06471e-19
2.06516e-19
2.06559e-19
2.06607e-19
2.06673e-19
2.06772e-19
2.06932e-19
2.07187e-19
2.07572e-19
2.0812e-19
2.08852e-19
2.09755e-19
2.10888e-19
1.98487e-19
2.00746e-19
2.02329e-19
2.03379e-19
2.04006e-19
2.04366e-19
2.04578e-19
2.04713e-19
2.04809e-19
2.04887e-19
2.04956e-19
2.05021e-19
2.05086e-19
2.05151e-19
2.05219e-19
2.05288e-19
2.05359e-19
2.05433e-19
2.05507e-19
2.05583e-19
2.05659e-19
2.05735e-19
2.0581e-19
2.05883e-19
2.05952e-19
2.06016e-19
2.06075e-19
2.06128e-19
2.06178e-19
2.06227e-19
2.06284e-19
2.06359e-19
2.0647e-19
2.06644e-19
2.06916e-19
2.07323e-19
2.07904e-19
2.08681e-19
2.09646e-19
2.10858e-19
1.98442e-19
2.00585e-19
2.02113e-19
2.03152e-19
2.0379e-19
2.04165e-19
2.04388e-19
2.04528e-19
2.04625e-19
2.04699e-19
2.04762e-19
2.04819e-19
2.04875e-19
2.04931e-19
2.04988e-19
2.05047e-19
2.05108e-19
2.05171e-19
2.05236e-19
2.05303e-19
2.05371e-19
2.05439e-19
2.05507e-19
2.05574e-19
2.05639e-19
2.05701e-19
2.0576e-19
2.05816e-19
2.05869e-19
2.05924e-19
2.05988e-19
2.06072e-19
2.06193e-19
2.0638e-19
2.06667e-19
2.07095e-19
2.07704e-19
2.08523e-19
2.09543e-19
2.1083e-19
1.98402e-19
2.00441e-19
2.01919e-19
2.02948e-19
2.03596e-19
2.03987e-19
2.04223e-19
2.04371e-19
2.04471e-19
2.04544e-19
2.04603e-19
2.04655e-19
2.04703e-19
2.04751e-19
2.04799e-19
2.04849e-19
2.049e-19
2.04953e-19
2.05008e-19
2.05065e-19
2.05124e-19
2.05184e-19
2.05245e-19
2.05305e-19
2.05365e-19
2.05424e-19
2.05481e-19
2.05536e-19
2.05591e-19
2.05651e-19
2.05721e-19
2.05812e-19
2.05943e-19
2.0614e-19
2.0644e-19
2.06886e-19
2.0752e-19
2.08376e-19
2.09446e-19
2.10804e-19
1.98366e-19
2.00314e-19
2.01746e-19
2.02764e-19
2.03422e-19
2.0383e-19
2.0408e-19
2.04238e-19
2.04342e-19
2.04417e-19
2.04474e-19
2.04522e-19
2.04565e-19
2.04606e-19
2.04647e-19
2.04688e-19
2.04731e-19
2.04775e-19
2.04821e-19
2.04869e-19
2.04919e-19
2.0497e-19
2.05023e-19
2.05076e-19
2.0513e-19
2.05184e-19
2.05237e-19
2.05291e-19
2.05347e-19
2.05409e-19
2.05483e-19
2.0558e-19
2.05719e-19
2.05925e-19
2.06236e-19
2.06695e-19
2.07351e-19
2.08238e-19
2.09355e-19
2.10779e-19
1.98335e-19
2.00201e-19
2.0159e-19
2.02598e-19
2.03267e-19
2.0369e-19
2.03955e-19
2.04123e-19
2.04234e-19
2.04311e-19
2.04369e-19
2.04415e-19
2.04454e-19
2.04491e-19
2.04526e-19
2.04561e-19
2.04596e-19
2.04633e-19
2.04671e-19
2.04711e-19
2.04752e-19
2.04795e-19
2.0484e-19
2.04886e-19
2.04933e-19
2.04981e-19
2.05031e-19
2.05082e-19
2.05137e-19
2.052e-19
2.05276e-19
2.05377e-19
2.05521e-19
2.05733e-19
2.06051e-19
2.06521e-19
2.07194e-19
2.0811e-19
2.0927e-19
2.10755e-19
1.98307e-19
2.001e-19
2.01451e-19
2.02449e-19
2.03126e-19
2.03563e-19
2.03842e-19
2.04022e-19
2.0414e-19
2.04222e-19
2.04281e-19
2.04326e-19
2.04364e-19
2.04398e-19
2.04429e-19
2.04459e-19
2.04489e-19
2.04519e-19
2.04551e-19
2.04584e-19
2.04618e-19
2.04654e-19
2.04692e-19
2.04731e-19
2.04772e-19
2.04814e-19
2.04859e-19
2.04907e-19
2.04959e-19
2.05021e-19
2.05098e-19
2.05201e-19
2.05347e-19
2.05563e-19
2.05886e-19
2.06363e-19
2.0705e-19
2.0799e-19
2.09188e-19
2.10732e-19
1.98282e-19
2.00009e-19
2.01324e-19
2.02312e-19
2.02995e-19
2.03446e-19
2.03738e-19
2.03928e-19
2.04054e-19
2.04141e-19
2.04202e-19
2.04249e-19
2.04287e-19
2.04319e-19
2.04348e-19
2.04375e-19
2.04402e-19
2.04428e-19
2.04455e-19
2.04483e-19
2.04512e-19
2.04542e-19
2.04573e-19
2.04606e-19
2.04641e-19
2.04678e-19
2.04718e-19
2.04762e-19
2.04812e-19
2.04871e-19
2.04947e-19
2.0505e-19
2.05197e-19
2.05414e-19
2.05738e-19
2.06219e-19
2.06914e-19
2.07875e-19
2.09109e-19
2.1071e-19
1.98259e-19
1.99926e-19
2.01207e-19
2.02184e-19
2.02871e-19
2.03333e-19
2.03637e-19
2.03837e-19
2.0397e-19
2.04062e-19
2.04128e-19
2.04177e-19
2.04216e-19
2.04248e-19
2.04277e-19
2.04303e-19
2.04328e-19
2.04352e-19
2.04376e-19
2.044e-19
2.04425e-19
2.04451e-19
2.04478e-19
2.04506e-19
2.04536e-19
2.04569e-19
2.04604e-19
2.04644e-19
2.0469e-19
2.04747e-19
2.04821e-19
2.04922e-19
2.05067e-19
2.05281e-19
2.05604e-19
2.06085e-19
2.06786e-19
2.07765e-19
2.09033e-19
2.10689e-19
1.98238e-19
1.99848e-19
2.01097e-19
2.02062e-19
2.02751e-19
2.03221e-19
2.03535e-19
2.03743e-19
2.03883e-19
2.0398e-19
2.04049e-19
2.04102e-19
2.04143e-19
2.04177e-19
2.04207e-19
2.04234e-19
2.04259e-19
2.04283e-19
2.04306e-19
2.04329e-19
2.04352e-19
2.04375e-19
2.04399e-19
2.04424e-19
2.04451e-19
2.04479e-19
2.04511e-19
2.04547e-19
2.0459e-19
2.04643e-19
2.04714e-19
2.04812e-19
2.04953e-19
2.05163e-19
2.05481e-19
2.05959e-19
2.06663e-19
2.07656e-19
2.08956e-19
2.10667e-19
1.98218e-19
1.99774e-19
2.00991e-19
2.01941e-19
2.0263e-19
2.03106e-19
2.03427e-19
2.03642e-19
2.03787e-19
2.03889e-19
2.03962e-19
2.04017e-19
2.04062e-19
2.04099e-19
2.04131e-19
2.0416e-19
2.04187e-19
2.04213e-19
2.04237e-19
2.0426e-19
2.04283e-19
2.04306e-19
2.04329e-19
2.04353e-19
2.04377e-19
2.04404e-19
2.04433e-19
2.04466e-19
2.04506e-19
2.04556e-19
2.04623e-19
2.04716e-19
2.04852e-19
2.05056e-19
2.05367e-19
2.05838e-19
2.06542e-19
2.07546e-19
2.08878e-19
2.10645e-19
1.98198e-19
1.99702e-19
2.00885e-19
2.0182e-19
2.02505e-19
2.02984e-19
2.03309e-19
2.03528e-19
2.03678e-19
2.03783e-19
2.03859e-19
2.03918e-19
2.03966e-19
2.04007e-19
2.04043e-19
2.04075e-19
2.04106e-19
2.04134e-19
2.04161e-19
2.04187e-19
2.04212e-19
2.04236e-19
2.0426e-19
2.04284e-19
2.04309e-19
2.04334e-19
2.04362e-19
2.04394e-19
2.04431e-19
2.04479e-19
2.04542e-19
2.04631e-19
2.0476e-19
2.04956e-19
2.05257e-19
2.05719e-19
2.06419e-19
2.07434e-19
2.08797e-19
2.10622e-19
1.98178e-19
1.9963e-19
2.00779e-19
2.01696e-19
2.02374e-19
2.02851e-19
2.03178e-19
2.03399e-19
2.03551e-19
2.03658e-19
2.03737e-19
2.03799e-19
2.0385e-19
2.03894e-19
2.03935e-19
2.03972e-19
2.04007e-19
2.0404e-19
2.04072e-19
2.04102e-19
2.04131e-19
2.04158e-19
2.04185e-19
2.04211e-19
2.04238e-19
2.04264e-19
2.04293e-19
2.04324e-19
2.04361e-19
2.04406e-19
2.04466e-19
2.04549e-19
2.04672e-19
2.04858e-19
2.05147e-19
2.05598e-19
2.06292e-19
2.07315e-19
2.0871e-19
2.10598e-19
1.98158e-19
1.99557e-19
2.0067e-19
2.01565e-19
2.02232e-19
2.02705e-19
2.03031e-19
2.03252e-19
2.03403e-19
2.0351e-19
2.0359e-19
2.03654e-19
2.03708e-19
2.03756e-19
2.03801e-19
2.03844e-19
2.03885e-19
2.03924e-19
2.03962e-19
2.03997e-19
2.04032e-19
2.04065e-19
2.04096e-19
2.04127e-19
2.04156e-19
2.04186e-19
2.04217e-19
2.04249e-19
2.04286e-19
2.04331e-19
2.04388e-19
2.04467e-19
2.04582e-19
2.04758e-19
2.05034e-19
2.05472e-19
2.06157e-19
2.07188e-19
2.08616e-19
2.10571e-19
1.98138e-19
1.99481e-19
2.00556e-19
2.01426e-19
2.02079e-19
2.02544e-19
2.02865e-19
2.03083e-19
2.03231e-19
2.03336e-19
2.03416e-19
2.0348e-19
2.03536e-19
2.03588e-19
2.03638e-19
2.03686e-19
2.03733e-19
2.03779e-19
2.03824e-19
2.03867e-19
2.03908e-19
2.03948e-19
2.03986e-19
2.04022e-19
2.04058e-19
2.04092e-19
2.04127e-19
2.04163e-19
2.04201e-19
2.04246e-19
2.04302e-19
2.04378e-19
2.04486e-19
2.04652e-19
2.04914e-19
2.05336e-19
2.06011e-19
2.07048e-19
2.08513e-19
2.10541e-19
1.98116e-19
1.99402e-19
2.00435e-19
2.01276e-19
2.01911e-19
2.02365e-19
2.02678e-19
2.0289e-19
2.03033e-19
2.03135e-19
2.03212e-19
2.03276e-19
2.03333e-19
2.03387e-19
2.03441e-19
2.03494e-19
2.03548e-19
2.03601e-19
2.03653e-19
2.03704e-19
2.03754e-19
2.03801e-19
2.03847e-19
2.03892e-19
2.03934e-19
2.03975e-19
2.04016e-19
2.04056e-19
2.04099e-19
2.04146e-19
2.04202e-19
2.04275e-19
2.04378e-19
2.04533e-19
2.04781e-19
2.05187e-19
2.0585e-19
2.06894e-19
2.08397e-19
2.10508e-19
1.98094e-19
1.99318e-19
2.00306e-19
2.01115e-19
2.01728e-19
2.02167e-19
2.02469e-19
2.02673e-19
2.02809e-19
2.02905e-19
2.02978e-19
2.03039e-19
2.03096e-19
2.03151e-19
2.03208e-19
2.03266e-19
2.03325e-19
2.03385e-19
2.03445e-19
2.03504e-19
2.03563e-19
2.0362e-19
2.03675e-19
2.03728e-19
2.03779e-19
2.03828e-19
2.03876e-19
2.03924e-19
2.03972e-19
2.04023e-19
2.04082e-19
2.04154e-19
2.04252e-19
2.04398e-19
2.04632e-19
2.05021e-19
2.05672e-19
2.06722e-19
2.08267e-19
2.10471e-19
1.9807e-19
1.99229e-19
2.00168e-19
2.00939e-19
2.01527e-19
2.01949e-19
2.02238e-19
2.0243e-19
2.02558e-19
2.02646e-19
2.02713e-19
2.02771e-19
2.02825e-19
2.02881e-19
2.02939e-19
2.03e-19
2.03064e-19
2.0313e-19
2.03198e-19
2.03265e-19
2.03332e-19
2.03399e-19
2.03463e-19
2.03526e-19
2.03587e-19
2.03646e-19
2.03703e-19
2.03759e-19
2.03815e-19
2.03872e-19
2.03935e-19
2.04008e-19
2.04104e-19
2.04243e-19
2.04464e-19
2.04837e-19
2.05475e-19
2.06531e-19
2.08121e-19
2.10428e-19
1.98045e-19
1.99135e-19
2.00021e-19
2.00751e-19
2.01309e-19
2.0171e-19
2.01984e-19
2.02164e-19
2.02281e-19
2.0236e-19
2.02421e-19
2.02473e-19
2.02523e-19
2.02577e-19
2.02635e-19
2.02698e-19
2.02766e-19
2.02837e-19
2.02911e-19
2.02986e-19
2.03061e-19
2.03136e-19
2.03211e-19
2.03283e-19
2.03355e-19
2.03424e-19
2.03491e-19
2.03557e-19
2.03622e-19
2.03687e-19
2.03756e-19
2.03834e-19
2.0393e-19
2.04064e-19
2.04274e-19
2.04631e-19
2.05256e-19
2.06318e-19
2.07958e-19
2.1038e-19
1.98018e-19
1.99035e-19
1.99863e-19
2.00548e-19
2.01073e-19
2.01451e-19
2.01707e-19
2.01873e-19
2.01979e-19
2.02049e-19
2.02102e-19
2.02148e-19
2.02194e-19
2.02244e-19
2.02301e-19
2.02364e-19
2.02434e-19
2.02508e-19
2.02587e-19
2.02668e-19
2.02751e-19
2.02834e-19
2.02917e-19
2.02999e-19
2.0308e-19
2.0316e-19
2.03238e-19
2.03315e-19
2.0339e-19
2.03466e-19
2.03543e-19
2.03627e-19
2.03727e-19
2.03859e-19
2.04061e-19
2.04404e-19
2.05016e-19
2.06083e-19
2.07775e-19
2.10326e-19
1.9799e-19
1.98929e-19
1.99695e-19
2.00331e-19
2.0082e-19
2.01171e-19
2.01408e-19
2.0156e-19
2.01653e-19
2.01715e-19
2.0176e-19
2.01799e-19
2.0184e-19
2.01887e-19
2.01941e-19
2.02004e-19
2.02073e-19
2.0215e-19
2.02231e-19
2.02317e-19
2.02405e-19
2.02495e-19
2.02586e-19
2.02677e-19
2.02767e-19
2.02857e-19
2.02945e-19
2.03033e-19
2.0312e-19
2.03206e-19
2.03294e-19
2.03387e-19
2.03493e-19
2.03627e-19
2.03825e-19
2.04156e-19
2.04755e-19
2.05828e-19
2.07574e-19
2.10265e-19
1.97961e-19
1.98817e-19
1.99517e-19
2.001e-19
2.00549e-19
2.00871e-19
2.01088e-19
2.01225e-19
2.01307e-19
2.01361e-19
2.01399e-19
2.01433e-19
2.01469e-19
2.01512e-19
2.01563e-19
2.01624e-19
2.01693e-19
2.0177e-19
2.01853e-19
2.01941e-19
2.02033e-19
2.02128e-19
2.02224e-19
2.02322e-19
2.0242e-19
2.02519e-19
2.02617e-19
2.02716e-19
2.02814e-19
2.02912e-19
2.03012e-19
2.03116e-19
2.03231e-19
2.03371e-19
2.03568e-19
2.03891e-19
2.04477e-19
2.05553e-19
2.07355e-19
2.10197e-19
1.9793e-19
1.98699e-19
1.99329e-19
1.99855e-19
2.00261e-19
2.00552e-19
2.00747e-19
2.0087e-19
2.00942e-19
2.00989e-19
2.01023e-19
2.01053e-19
2.01085e-19
2.01126e-19
2.01176e-19
2.01235e-19
2.01303e-19
2.01379e-19
2.01463e-19
2.01552e-19
2.01646e-19
2.01744e-19
2.01844e-19
2.01947e-19
2.02051e-19
2.02157e-19
2.02264e-19
2.02371e-19
2.0248e-19
2.0259e-19
2.02703e-19
2.0282e-19
2.02946e-19
2.03095e-19
2.03295e-19
2.03612e-19
2.04187e-19
2.05263e-19
2.0712e-19
2.10123e-19
1.97898e-19
1.98576e-19
1.99132e-19
1.99598e-19
1.99958e-19
2.00215e-19
2.00389e-19
2.00497e-19
2.00563e-19
2.00606e-19
2.00638e-19
2.00667e-19
2.007e-19
2.0074e-19
2.0079e-19
2.00848e-19
2.00916e-19
2.00992e-19
2.01076e-19
2.01165e-19
2.01259e-19
2.01358e-19
2.01461e-19
2.01566e-19
2.01674e-19
2.01785e-19
2.01899e-19
2.02014e-19
2.02132e-19
2.02253e-19
2.02377e-19
2.02508e-19
2.02648e-19
2.02809e-19
2.03016e-19
2.03331e-19
2.03894e-19
2.04967e-19
2.06874e-19
2.10044e-19
1.97865e-19
1.98448e-19
1.98927e-19
1.9933e-19
1.9964e-19
1.99864e-19
2.00016e-19
2.00114e-19
2.00176e-19
2.00219e-19
2.00253e-19
2.00286e-19
2.00323e-19
2.00367e-19
2.00419e-19
2.00479e-19
2.00548e-19
2.00625e-19
2.00708e-19
2.00797e-19
2.00891e-19
2.0099e-19
2.01093e-19
2.012e-19
2.01311e-19
2.01425e-19
2.01542e-19
2.01663e-19
2.01789e-19
2.01919e-19
2.02054e-19
2.02197e-19
2.02351e-19
2.02526e-19
2.02743e-19
2.0306e-19
2.03612e-19
2.04675e-19
2.06624e-19
2.09961e-19
1.97831e-19
1.98317e-19
1.98716e-19
1.99053e-19
1.99315e-19
1.99505e-19
1.99639e-19
1.99731e-19
1.99794e-19
1.99843e-19
1.99885e-19
1.99927e-19
1.99972e-19
2.00023e-19
2.00081e-19
2.00146e-19
2.00217e-19
2.00295e-19
2.00379e-19
2.00468e-19
2.00562e-19
2.00661e-19
2.00763e-19
2.00871e-19
2.00982e-19
2.01098e-19
2.01218e-19
2.01343e-19
2.01474e-19
2.01612e-19
2.01756e-19
2.01911e-19
2.02078e-19
2.02266e-19
2.02494e-19
2.02813e-19
2.03353e-19
2.044e-19
2.06378e-19
2.09877e-19
1.97797e-19
1.98188e-19
1.98508e-19
1.9878e-19
1.98996e-19
1.99158e-19
1.9928e-19
1.9937e-19
1.99441e-19
1.99501e-19
1.99556e-19
1.99611e-19
1.99668e-19
1.9973e-19
1.99796e-19
1.99867e-19
1.99943e-19
2.00023e-19
2.00109e-19
2.00199e-19
2.00293e-19
2.00391e-19
2.00493e-19
2.006e-19
2.00712e-19
2.00829e-19
2.00951e-19
2.0108e-19
2.01215e-19
2.01358e-19
2.01511e-19
2.01675e-19
2.01854e-19
2.02055e-19
2.02294e-19
2.02615e-19
2.03141e-19
2.04164e-19
2.06155e-19
2.09798e-19
1.97768e-19
1.98072e-19
1.98321e-19
1.98536e-19
1.98714e-19
1.98856e-19
1.98973e-19
1.99068e-19
1.99151e-19
1.99225e-19
1.99296e-19
1.99366e-19
1.99436e-19
1.99508e-19
1.99583e-19
1.99661e-19
1.99742e-19
1.99826e-19
1.99914e-19
2.00005e-19
2.001e-19
2.00199e-19
2.00302e-19
2.00409e-19
2.00522e-19
2.0064e-19
2.00764e-19
2.00895e-19
2.01035e-19
2.01183e-19
2.01343e-19
2.01516e-19
2.01705e-19
2.01918e-19
2.02167e-19
2.02492e-19
2.03005e-19
2.03995e-19
2.05978e-19
2.0973e-19
1.97746e-19
1.97986e-19
1.98184e-19
1.98359e-19
1.98513e-19
1.98645e-19
1.98762e-19
1.98865e-19
1.98959e-19
1.99047e-19
1.99131e-19
1.99213e-19
1.99294e-19
1.99375e-19
1.99457e-19
1.9954e-19
1.99626e-19
1.99713e-19
1.99803e-19
1.99896e-19
1.99992e-19
2.00092e-19
2.00196e-19
2.00305e-19
2.00419e-19
2.00539e-19
2.00666e-19
2.00801e-19
2.00944e-19
2.01099e-19
2.01265e-19
2.01446e-19
2.01645e-19
2.01868e-19
2.02128e-19
2.02461e-19
2.0297e-19
2.03932e-19
2.05889e-19
2.0969e-19
1.97741e-19
1.97945e-19
1.9812e-19
1.98279e-19
1.98423e-19
1.98553e-19
1.98671e-19
1.9878e-19
1.98881e-19
1.98976e-19
1.99066e-19
1.99154e-19
1.9924e-19
1.99326e-19
1.99411e-19
1.99497e-19
1.99585e-19
1.99674e-19
1.99765e-19
1.9986e-19
1.99957e-19
2.00058e-19
2.00164e-19
2.00274e-19
2.0039e-19
2.00512e-19
2.00642e-19
2.00779e-19
2.00927e-19
2.01085e-19
2.01257e-19
2.01444e-19
2.0165e-19
2.01881e-19
2.02152e-19
2.02499e-19
2.03024e-19
2.03988e-19
2.05907e-19
2.09546e-19
3.11221e-19
3.17249e-19
3.20216e-19
3.2164e-19
3.22409e-19
3.2293e-19
3.23345e-19
3.23702e-19
3.24022e-19
3.24312e-19
3.24579e-19
3.24826e-19
3.25056e-19
3.25271e-19
3.25475e-19
3.25667e-19
3.2585e-19
3.26025e-19
3.26193e-19
3.26354e-19
3.2651e-19
3.26661e-19
3.26808e-19
3.26952e-19
3.27094e-19
3.27234e-19
3.27374e-19
3.27514e-19
3.27656e-19
3.27801e-19
3.27951e-19
3.28109e-19
3.28275e-19
3.28454e-19
3.28648e-19
3.28862e-19
3.291e-19
3.29366e-19
3.29659e-19
3.3002e-19
3.10454e-19
9.15731e-19
1.02547e-18
1.04042e-18
1.04171e-18
1.04254e-18
1.04339e-18
1.04429e-18
1.04518e-18
1.04613e-18
1.04697e-18
1.04781e-18
1.04855e-18
1.04926e-18
1.04993e-18
1.05054e-18
1.05111e-18
1.05164e-18
1.05211e-18
1.05254e-18
1.05288e-18
1.05312e-18
1.05331e-18
1.05326e-18
1.05271e-18
1.05196e-18
1.05116e-18
1.05041e-18
1.05006e-18
1.05026e-18
1.05145e-18
1.055e-18
1.06081e-18
1.06573e-18
1.07185e-18
1.07883e-18
1.08278e-18
1.07362e-18
9.4257e-19
3.30048e-19
3.10427e-19
1.05205e-18
1.18629e-18
1.19593e-18
1.19593e-18
1.19672e-18
1.19759e-18
1.19865e-18
1.19969e-18
1.20057e-18
1.20146e-18
1.20242e-18
1.20322e-18
1.20397e-18
1.20476e-18
1.20545e-18
1.20609e-18
1.20671e-18
1.20728e-18
1.20782e-18
1.2083e-18
1.20868e-18
1.20902e-18
1.20932e-18
1.20958e-18
1.20974e-18
1.2099e-18
1.21011e-18
1.21036e-18
1.21041e-18
1.2113e-18
1.21365e-18
1.2159e-18
1.21958e-18
1.22292e-18
1.22847e-18
1.22934e-18
1.21022e-18
1.02214e-18
3.30021e-19
3.10359e-19
1.05747e-18
1.19843e-18
1.20516e-18
1.20595e-18
1.20673e-18
1.20774e-18
1.20875e-18
1.20979e-18
1.21078e-18
1.21182e-18
1.21268e-18
1.21336e-18
1.21414e-18
1.21504e-18
1.21576e-18
1.2164e-18
1.21708e-18
1.21771e-18
1.21833e-18
1.2189e-18
1.2194e-18
1.21967e-18
1.22027e-18
1.22066e-18
1.22095e-18
1.22112e-18
1.22118e-18
1.22076e-18
1.22036e-18
1.22112e-18
1.22157e-18
1.22322e-18
1.22661e-18
1.22757e-18
1.23332e-18
1.23391e-18
1.21435e-18
1.02409e-18
3.29985e-19
3.10271e-19
1.04952e-18
1.19396e-18
1.20115e-18
1.20303e-18
1.20427e-18
1.20593e-18
1.20721e-18
1.20836e-18
1.2094e-18
1.21039e-18
1.21129e-18
1.21216e-18
1.21308e-18
1.21389e-18
1.2146e-18
1.21526e-18
1.21604e-18
1.2168e-18
1.21747e-18
1.21804e-18
1.21854e-18
1.21901e-18
1.21959e-18
1.21999e-18
1.22023e-18
1.22016e-18
1.21973e-18
1.21878e-18
1.21831e-18
1.21819e-18
1.21707e-18
1.21571e-18
1.22123e-18
1.22413e-18
1.2283e-18
1.23213e-18
1.21054e-18
1.02244e-18
3.29946e-19
3.10174e-19
1.03911e-18
1.18748e-18
1.19968e-18
1.20049e-18
1.20177e-18
1.20347e-18
1.20488e-18
1.20612e-18
1.20721e-18
1.20821e-18
1.20913e-18
1.21e-18
1.21085e-18
1.21165e-18
1.21241e-18
1.21321e-18
1.21398e-18
1.21475e-18
1.21547e-18
1.21611e-18
1.2166e-18
1.21721e-18
1.21767e-18
1.21816e-18
1.21834e-18
1.21811e-18
1.21745e-18
1.21657e-18
1.21562e-18
1.21463e-18
1.21149e-18
1.2113e-18
1.21152e-18
1.21893e-18
1.22066e-18
1.2281e-18
1.20852e-18
1.02111e-18
3.29906e-19
3.10081e-19
1.0315e-18
1.18311e-18
1.19591e-18
1.19799e-18
1.19964e-18
1.20105e-18
1.20263e-18
1.2039e-18
1.20502e-18
1.206e-18
1.20691e-18
1.20776e-18
1.20859e-18
1.20938e-18
1.21015e-18
1.21093e-18
1.2117e-18
1.21246e-18
1.2132e-18
1.21389e-18
1.21448e-18
1.21506e-18
1.21548e-18
1.21591e-18
1.21625e-18
1.21599e-18
1.21526e-18
1.21423e-18
1.21288e-18
1.21136e-18
1.20771e-18
1.20881e-18
1.20769e-18
1.21103e-18
1.21527e-18
1.22209e-18
1.20548e-18
1.02063e-18
3.29868e-19
3.09992e-19
1.02495e-18
1.17719e-18
1.18917e-18
1.19331e-18
1.19778e-18
1.19926e-18
1.20055e-18
1.20188e-18
1.20297e-18
1.20391e-18
1.20478e-18
1.20559e-18
1.20637e-18
1.20712e-18
1.20787e-18
1.20862e-18
1.20936e-18
1.21011e-18
1.21085e-18
1.21156e-18
1.21218e-18
1.21277e-18
1.21325e-18
1.21349e-18
1.2139e-18
1.21374e-18
1.21313e-18
1.21206e-18
1.21053e-18
1.2089e-18
1.2065e-18
1.20447e-18
1.2038e-18
1.2055e-18
1.20948e-18
1.21738e-18
1.20334e-18
1.02089e-18
3.29831e-19
3.09909e-19
1.01954e-18
1.17269e-18
1.18572e-18
1.19195e-18
1.19584e-18
1.19808e-18
1.19919e-18
1.2001e-18
1.20116e-18
1.202e-18
1.20283e-18
1.20356e-18
1.20429e-18
1.20499e-18
1.20568e-18
1.20638e-18
1.20708e-18
1.20779e-18
1.2085e-18
1.2092e-18
1.20982e-18
1.21041e-18
1.21092e-18
1.21119e-18
1.21148e-18
1.21152e-18
1.21099e-18
1.21e-18
1.20846e-18
1.20675e-18
1.20488e-18
1.20195e-18
1.20092e-18
1.20144e-18
1.20492e-18
1.21155e-18
1.20171e-18
1.02182e-18
3.29796e-19
3.09835e-19
1.0156e-18
1.17033e-18
1.18521e-18
1.1907e-18
1.19299e-18
1.19579e-18
1.19784e-18
1.19881e-18
1.19965e-18
1.20024e-18
1.20109e-18
1.20173e-18
1.20241e-18
1.20303e-18
1.20366e-18
1.20429e-18
1.20493e-18
1.20558e-18
1.20624e-18
1.2069e-18
1.20752e-18
1.20807e-18
1.20857e-18
1.20895e-18
1.20922e-18
1.20929e-18
1.20885e-18
1.20798e-18
1.20662e-18
1.20489e-18
1.20335e-18
1.20016e-18
1.1988e-18
1.19856e-18
1.20114e-18
1.20593e-18
1.20051e-18
1.02324e-18
3.29762e-19
3.09769e-19
1.0123e-18
1.16796e-18
1.18342e-18
1.18827e-18
1.19222e-18
1.19481e-18
1.19619e-18
1.19767e-18
1.19827e-18
1.19908e-18
1.19968e-18
1.20013e-18
1.20076e-18
1.2013e-18
1.20187e-18
1.20242e-18
1.20299e-18
1.20357e-18
1.20416e-18
1.20476e-18
1.20535e-18
1.20588e-18
1.20635e-18
1.20676e-18
1.20704e-18
1.20715e-18
1.20681e-18
1.20608e-18
1.20499e-18
1.20274e-18
1.20231e-18
1.19904e-18
1.1977e-18
1.19747e-18
1.19893e-18
1.20224e-18
1.19875e-18
1.02532e-18
3.2973e-19
3.09711e-19
1.00979e-18
1.16644e-18
1.18256e-18
1.18794e-18
1.19145e-18
1.19345e-18
1.19512e-18
1.19623e-18
1.19717e-18
1.19796e-18
1.1984e-18
1.19893e-18
1.19944e-18
1.19982e-18
1.20032e-18
1.2008e-18
1.20129e-18
1.2018e-18
1.20232e-18
1.20284e-18
1.20337e-18
1.20387e-18
1.20431e-18
1.20471e-18
1.20496e-18
1.20514e-18
1.20487e-18
1.20425e-18
1.20344e-18
1.2014e-18
1.20082e-18
1.19809e-18
1.19659e-18
1.19611e-18
1.19785e-18
1.20156e-18
1.19618e-18
1.02748e-18
3.29699e-19
3.0966e-19
1.00737e-18
1.16513e-18
1.18163e-18
1.18699e-18
1.19025e-18
1.19265e-18
1.19431e-18
1.19542e-18
1.19623e-18
1.19685e-18
1.19737e-18
1.19789e-18
1.19824e-18
1.19866e-18
1.19907e-18
1.19943e-18
1.19986e-18
1.20028e-18
1.20072e-18
1.20118e-18
1.20163e-18
1.20208e-18
1.20248e-18
1.20287e-18
1.20309e-18
1.20327e-18
1.20308e-18
1.20258e-18
1.20189e-18
1.20077e-18
1.19927e-18
1.19736e-18
1.19606e-18
1.196e-18
1.19698e-18
1.20018e-18
1.19467e-18
1.02974e-18
3.2967e-19
3.09615e-19
1.00557e-18
1.16412e-18
1.18092e-18
1.18628e-18
1.1896e-18
1.1919e-18
1.19361e-18
1.19472e-18
1.19551e-18
1.1961e-18
1.19656e-18
1.19697e-18
1.19729e-18
1.19768e-18
1.19799e-18
1.19834e-18
1.19868e-18
1.19902e-18
1.19939e-18
1.19977e-18
1.20016e-18
1.20053e-18
1.20089e-18
1.20125e-18
1.20145e-18
1.20162e-18
1.2015e-18
1.20113e-18
1.20053e-18
1.19981e-18
1.19832e-18
1.19681e-18
1.19564e-18
1.19546e-18
1.19718e-18
1.19989e-18
1.19369e-18
1.03217e-18
3.29643e-19
3.09576e-19
1.00426e-18
1.16324e-18
1.18024e-18
1.18561e-18
1.18892e-18
1.19146e-18
1.19315e-18
1.19416e-18
1.19492e-18
1.19549e-18
1.19592e-18
1.19629e-18
1.19658e-18
1.19688e-18
1.19715e-18
1.19745e-18
1.19771e-18
1.198e-18
1.19831e-18
1.19862e-18
1.19893e-18
1.19925e-18
1.19956e-18
1.19987e-18
1.20005e-18
1.2002e-18
1.20014e-18
1.1999e-18
1.19929e-18
1.19893e-18
1.19761e-18
1.19641e-18
1.19543e-18
1.19533e-18
1.19707e-18
1.1997e-18
1.19327e-18
1.03473e-18
3.29617e-19
3.09542e-19
1.00327e-18
1.16246e-18
1.17959e-18
1.18499e-18
1.18847e-18
1.19086e-18
1.19237e-18
1.19356e-18
1.19438e-18
1.19496e-18
1.19539e-18
1.19574e-18
1.19601e-18
1.19627e-18
1.1965e-18
1.19673e-18
1.19696e-18
1.19719e-18
1.19744e-18
1.19769e-18
1.19795e-18
1.19821e-18
1.19847e-18
1.1987e-18
1.19889e-18
1.19902e-18
1.199e-18
1.19886e-18
1.1984e-18
1.19808e-18
1.1971e-18
1.19619e-18
1.19539e-18
1.1954e-18
1.19691e-18
1.19999e-18
1.19358e-18
1.03722e-18
3.29592e-19
3.09512e-19
1.00236e-18
1.16163e-18
1.17878e-18
1.18413e-18
1.18758e-18
1.18998e-18
1.19174e-18
1.193e-18
1.19387e-18
1.19449e-18
1.19493e-18
1.19527e-18
1.19554e-18
1.19577e-18
1.19597e-18
1.19617e-18
1.19636e-18
1.19655e-18
1.19675e-18
1.19695e-18
1.19716e-18
1.19737e-18
1.19759e-18
1.19778e-18
1.19795e-18
1.19806e-18
1.19806e-18
1.19793e-18
1.1977e-18
1.19726e-18
1.19657e-18
1.19615e-18
1.19566e-18
1.19551e-18
1.19728e-18
1.20075e-18
1.1938e-18
1.03879e-18
3.29569e-19
3.09485e-19
1.00141e-18
1.16073e-18
1.17784e-18
1.18314e-18
1.18664e-18
1.18918e-18
1.19105e-18
1.1924e-18
1.19335e-18
1.19402e-18
1.1945e-18
1.19485e-18
1.19512e-18
1.19535e-18
1.19553e-18
1.1957e-18
1.19586e-18
1.19602e-18
1.19618e-18
1.19635e-18
1.19652e-18
1.1967e-18
1.19688e-18
1.19705e-18
1.1972e-18
1.19731e-18
1.19735e-18
1.19732e-18
1.19724e-18
1.19696e-18
1.19648e-18
1.19572e-18
1.19531e-18
1.19568e-18
1.19708e-18
1.20024e-18
1.1947e-18
1.04195e-18
3.29545e-19
3.09461e-19
1.00038e-18
1.15971e-18
1.17676e-18
1.182e-18
1.18556e-18
1.18824e-18
1.19025e-18
1.19172e-18
1.19277e-18
1.19351e-18
1.19404e-18
1.19443e-18
1.19472e-18
1.19495e-18
1.19512e-18
1.19528e-18
1.19543e-18
1.19557e-18
1.19571e-18
1.19586e-18
1.196e-18
1.19615e-18
1.19631e-18
1.19646e-18
1.19659e-18
1.1967e-18
1.19676e-18
1.19676e-18
1.19667e-18
1.19646e-18
1.19613e-18
1.19575e-18
1.19559e-18
1.19602e-18
1.19759e-18
1.20046e-18
1.19466e-18
1.04314e-18
3.29523e-19
3.09438e-19
9.98836e-19
1.15863e-18
1.17553e-18
1.18068e-18
1.1843e-18
1.18712e-18
1.18929e-18
1.19092e-18
1.19209e-18
1.19293e-18
1.19353e-18
1.19396e-18
1.19428e-18
1.19453e-18
1.19472e-18
1.19488e-18
1.19503e-18
1.19517e-18
1.1953e-18
1.19544e-18
1.19557e-18
1.19571e-18
1.19585e-18
1.19598e-18
1.19611e-18
1.1962e-18
1.19626e-18
1.19629e-18
1.19626e-18
1.19614e-18
1.19595e-18
1.19575e-18
1.19571e-18
1.19622e-18
1.19782e-18
1.20063e-18
1.19516e-18
1.04449e-18
3.295e-19
3.09417e-19
9.97234e-19
1.15732e-18
1.17421e-18
1.17921e-18
1.18286e-18
1.18581e-18
1.18816e-18
1.18998e-18
1.1913e-18
1.19225e-18
1.19293e-18
1.19341e-18
1.19377e-18
1.19407e-18
1.19428e-18
1.19446e-18
1.19461e-18
1.19476e-18
1.1949e-18
1.19503e-18
1.19517e-18
1.1953e-18
1.19543e-18
1.19556e-18
1.19568e-18
1.19579e-18
1.19586e-18
1.1959e-18
1.1959e-18
1.19585e-18
1.19575e-18
1.19566e-18
1.19577e-18
1.19639e-18
1.19794e-18
1.20062e-18
1.19507e-18
1.04612e-18
3.29477e-19
3.09396e-19
9.95442e-19
1.15592e-18
1.17254e-18
1.17751e-18
1.18121e-18
1.18427e-18
1.18689e-18
1.18896e-18
1.19039e-18
1.19146e-18
1.19221e-18
1.19277e-18
1.19318e-18
1.1935e-18
1.19375e-18
1.19396e-18
1.19414e-18
1.19431e-18
1.19446e-18
1.19461e-18
1.19475e-18
1.19489e-18
1.19502e-18
1.19515e-18
1.19528e-18
1.19539e-18