/*--------------------------------*- C++ -*----------------------------------*\
  =========                 |
  \\      /  F ield         | OpenFOAM: The Open Source CFD Toolbox
   \\    /   O peration     | Website:  https://openfoam.org
    \\  /    A nd           | Version:  12
     \\/     M anipulation  |
\*---------------------------------------------------------------------------*/
FoamFile
{
    format      ascii;
    class       volScalarField;
    location    "400";
    object      nut;
}
// * * * * * * * * * * * * * * * * * * * * * * * * * * * * * * * * * * * * * //

dimensions      [0 2 -1 0 0 0 0];

internalField   nonuniform List<scalar> 
8000
(
1.73677e-19
1.75336e-19
1.76176e-19
1.76604e-19
1.76836e-19
1.76988e-19
1.77105e-19
1.77204e-19
1.77292e-19
1.77371e-19
1.77445e-19
1.77512e-19
1.77575e-19
1.77634e-19
1.7769e-19
1.77743e-19
1.77793e-19
1.7784e-19
1.77886e-19
1.7793e-19
1.77973e-19
1.78014e-19
1.78054e-19
1.78093e-19
1.78132e-19
1.7817e-19
1.78207e-19
1.78245e-19
1.78283e-19
1.78323e-19
1.78363e-19
1.78406e-19
1.78451e-19
1.785e-19
1.78554e-19
1.78613e-19
1.78679e-19
1.78752e-19
1.78834e-19
1.78935e-19
1.73562e-19
1.75343e-19
1.76199e-19
1.76627e-19
1.76852e-19
1.76997e-19
1.77109e-19
1.77204e-19
1.77289e-19
1.77366e-19
1.77437e-19
1.77503e-19
1.77564e-19
1.77622e-19
1.77677e-19
1.77729e-19
1.77778e-19
1.77825e-19
1.7787e-19
1.77914e-19
1.77956e-19
1.77996e-19
1.78036e-19
1.78074e-19
1.78112e-19
1.78149e-19
1.78185e-19
1.78221e-19
1.78257e-19
1.78293e-19
1.7833e-19
1.78369e-19
1.78411e-19
1.78457e-19
1.78509e-19
1.7857e-19
1.7864e-19
1.78721e-19
1.78813e-19
1.78938e-19
1.7355e-19
1.75305e-19
1.7617e-19
1.76609e-19
1.76836e-19
1.76977e-19
1.77084e-19
1.77175e-19
1.77256e-19
1.77329e-19
1.77397e-19
1.77461e-19
1.77521e-19
1.77577e-19
1.7763e-19
1.77681e-19
1.7773e-19
1.77777e-19
1.77821e-19
1.77864e-19
1.77906e-19
1.77946e-19
1.77984e-19
1.78021e-19
1.78057e-19
1.78091e-19
1.78124e-19
1.78156e-19
1.78187e-19
1.78217e-19
1.78248e-19
1.7828e-19
1.78316e-19
1.78358e-19
1.78409e-19
1.78474e-19
1.78555e-19
1.78655e-19
1.78772e-19
1.7893e-19
1.7353e-19
1.75229e-19
1.76095e-19
1.76546e-19
1.76778e-19
1.76918e-19
1.7702e-19
1.77106e-19
1.77182e-19
1.77252e-19
1.77317e-19
1.77378e-19
1.77436e-19
1.77492e-19
1.77544e-19
1.77595e-19
1.77643e-19
1.77689e-19
1.77734e-19
1.77777e-19
1.77818e-19
1.77857e-19
1.77895e-19
1.7793e-19
1.77964e-19
1.77995e-19
1.78023e-19
1.7805e-19
1.78075e-19
1.78098e-19
1.78121e-19
1.78146e-19
1.78176e-19
1.78214e-19
1.78268e-19
1.7834e-19
1.78439e-19
1.78565e-19
1.78715e-19
1.7892e-19
1.73506e-19
1.75131e-19
1.75988e-19
1.76449e-19
1.76687e-19
1.76825e-19
1.76923e-19
1.77004e-19
1.77075e-19
1.7714e-19
1.77202e-19
1.77261e-19
1.77317e-19
1.77371e-19
1.77423e-19
1.77472e-19
1.77521e-19
1.77567e-19
1.77612e-19
1.77655e-19
1.77696e-19
1.77735e-19
1.77772e-19
1.77806e-19
1.77837e-19
1.77866e-19
1.77891e-19
1.77912e-19
1.77931e-19
1.77948e-19
1.77965e-19
1.77984e-19
1.7801e-19
1.78048e-19
1.78106e-19
1.78191e-19
1.7831e-19
1.78466e-19
1.78653e-19
1.78908e-19
1.73481e-19
1.75024e-19
1.75865e-19
1.76331e-19
1.76574e-19
1.76712e-19
1.76805e-19
1.76879e-19
1.76945e-19
1.77006e-19
1.77063e-19
1.77119e-19
1.77173e-19
1.77225e-19
1.77275e-19
1.77324e-19
1.77372e-19
1.77418e-19
1.77463e-19
1.77506e-19
1.77547e-19
1.77586e-19
1.77623e-19
1.77656e-19
1.77687e-19
1.77713e-19
1.77735e-19
1.77754e-19
1.77769e-19
1.77781e-19
1.77794e-19
1.7781e-19
1.77835e-19
1.77875e-19
1.77941e-19
1.7804e-19
1.7818e-19
1.78367e-19
1.78591e-19
1.78897e-19
1.73456e-19
1.74915e-19
1.75734e-19
1.76203e-19
1.7645e-19
1.76587e-19
1.76676e-19
1.76745e-19
1.76804e-19
1.7686e-19
1.76913e-19
1.76964e-19
1.77015e-19
1.77064e-19
1.77113e-19
1.77161e-19
1.77207e-19
1.77253e-19
1.77298e-19
1.7734e-19
1.77382e-19
1.77421e-19
1.77457e-19
1.77491e-19
1.7752e-19
1.77546e-19
1.77567e-19
1.77584e-19
1.77597e-19
1.77608e-19
1.7762e-19
1.77635e-19
1.77661e-19
1.77706e-19
1.7778e-19
1.77893e-19
1.78056e-19
1.78271e-19
1.78531e-19
1.78885e-19
1.73433e-19
1.74808e-19
1.75602e-19
1.7607e-19
1.76322e-19
1.7646e-19
1.76546e-19
1.7661e-19
1.76663e-19
1.76713e-19
1.76761e-19
1.76808e-19
1.76854e-19
1.769e-19
1.76946e-19
1.76992e-19
1.77037e-19
1.77081e-19
1.77125e-19
1.77167e-19
1.77208e-19
1.77247e-19
1.77284e-19
1.77317e-19
1.77347e-19
1.77373e-19
1.77394e-19
1.77411e-19
1.77424e-19
1.77435e-19
1.77447e-19
1.77465e-19
1.77493e-19
1.77543e-19
1.77627e-19
1.77754e-19
1.77937e-19
1.78179e-19
1.78473e-19
1.78874e-19
1.73411e-19
1.74706e-19
1.75473e-19
1.75939e-19
1.76195e-19
1.76336e-19
1.76421e-19
1.7648e-19
1.76529e-19
1.76573e-19
1.76616e-19
1.76658e-19
1.767e-19
1.76742e-19
1.76784e-19
1.76826e-19
1.76869e-19
1.76911e-19
1.76953e-19
1.76994e-19
1.77034e-19
1.77072e-19
1.77109e-19
1.77142e-19
1.77173e-19
1.77199e-19
1.77221e-19
1.7724e-19
1.77254e-19
1.77267e-19
1.77281e-19
1.77301e-19
1.77334e-19
1.7739e-19
1.77482e-19
1.77623e-19
1.77824e-19
1.78091e-19
1.78417e-19
1.78864e-19
1.73391e-19
1.74612e-19
1.75351e-19
1.75814e-19
1.76075e-19
1.76219e-19
1.76304e-19
1.76361e-19
1.76406e-19
1.76446e-19
1.76483e-19
1.7652e-19
1.76557e-19
1.76594e-19
1.76633e-19
1.76671e-19
1.7671e-19
1.76749e-19
1.76788e-19
1.76827e-19
1.76866e-19
1.76903e-19
1.76939e-19
1.76972e-19
1.77003e-19
1.7703e-19
1.77054e-19
1.77073e-19
1.7709e-19
1.77105e-19
1.77123e-19
1.77147e-19
1.77184e-19
1.77246e-19
1.77347e-19
1.775e-19
1.77719e-19
1.78009e-19
1.78365e-19
1.78854e-19
1.73373e-19
1.74525e-19
1.75238e-19
1.75696e-19
1.75962e-19
1.7611e-19
1.76198e-19
1.76255e-19
1.76297e-19
1.76333e-19
1.76366e-19
1.76398e-19
1.7643e-19
1.76463e-19
1.76497e-19
1.76531e-19
1.76566e-19
1.76601e-19
1.76637e-19
1.76673e-19
1.76709e-19
1.76745e-19
1.76779e-19
1.76811e-19
1.76842e-19
1.76869e-19
1.76894e-19
1.76916e-19
1.76935e-19
1.76953e-19
1.76974e-19
1.77002e-19
1.77044e-19
1.77112e-19
1.77221e-19
1.77386e-19
1.7762e-19
1.77931e-19
1.78315e-19
1.78844e-19
1.73357e-19
1.74446e-19
1.75134e-19
1.75588e-19
1.75858e-19
1.76013e-19
1.76104e-19
1.76162e-19
1.76203e-19
1.76236e-19
1.76266e-19
1.76294e-19
1.76322e-19
1.7635e-19
1.76379e-19
1.76408e-19
1.76439e-19
1.7647e-19
1.76503e-19
1.76535e-19
1.76568e-19
1.766e-19
1.76632e-19
1.76663e-19
1.76693e-19
1.7672e-19
1.76746e-19
1.76769e-19
1.7679e-19
1.76811e-19
1.76835e-19
1.76867e-19
1.76914e-19
1.76989e-19
1.77105e-19
1.77279e-19
1.77527e-19
1.77859e-19
1.78269e-19
1.78835e-19
1.73342e-19
1.74376e-19
1.7504e-19
1.7549e-19
1.75764e-19
1.75926e-19
1.76021e-19
1.76082e-19
1.76123e-19
1.76155e-19
1.76182e-19
1.76207e-19
1.76231e-19
1.76255e-19
1.76279e-19
1.76305e-19
1.76331e-19
1.76358e-19
1.76386e-19
1.76414e-19
1.76444e-19
1.76473e-19
1.76502e-19
1.76531e-19
1.76559e-19
1.76586e-19
1.76611e-19
1.76634e-19
1.76657e-19
1.76681e-19
1.76708e-19
1.76744e-19
1.76796e-19
1.76876e-19
1.76999e-19
1.77181e-19
1.77442e-19
1.77791e-19
1.78225e-19
1.78827e-19
1.7333e-19
1.74313e-19
1.74955e-19
1.75401e-19
1.7568e-19
1.75848e-19
1.7595e-19
1.76013e-19
1.76056e-19
1.76088e-19
1.76113e-19
1.76135e-19
1.76156e-19
1.76177e-19
1.76197e-19
1.76219e-19
1.76241e-19
1.76264e-19
1.76288e-19
1.76312e-19
1.76337e-19
1.76363e-19
1.76389e-19
1.76415e-19
1.76441e-19
1.76466e-19
1.7649e-19
1.76514e-19
1.76538e-19
1.76563e-19
1.76593e-19
1.76632e-19
1.76688e-19
1.76773e-19
1.76901e-19
1.77092e-19
1.77363e-19
1.77728e-19
1.78184e-19
1.78819e-19
1.73319e-19
1.74257e-19
1.7488e-19
1.7532e-19
1.75605e-19
1.7578e-19
1.75888e-19
1.75955e-19
1.76e-19
1.76032e-19
1.76057e-19
1.76078e-19
1.76096e-19
1.76114e-19
1.76132e-19
1.76149e-19
1.76168e-19
1.76187e-19
1.76207e-19
1.76227e-19
1.76249e-19
1.76271e-19
1.76294e-19
1.76317e-19
1.7634e-19
1.76363e-19
1.76386e-19
1.76409e-19
1.76433e-19
1.7646e-19
1.76491e-19
1.76533e-19
1.76592e-19
1.76681e-19
1.76814e-19
1.7701e-19
1.77291e-19
1.7767e-19
1.78145e-19
1.78811e-19
1.73309e-19
1.74208e-19
1.74812e-19
1.75248e-19
1.75537e-19
1.75719e-19
1.75833e-19
1.75906e-19
1.75953e-19
1.75987e-19
1.76011e-19
1.76031e-19
1.76048e-19
1.76064e-19
1.76079e-19
1.76094e-19
1.76109e-19
1.76125e-19
1.76142e-19
1.76159e-19
1.76177e-19
1.76195e-19
1.76215e-19
1.76234e-19
1.76255e-19
1.76276e-19
1.76297e-19
1.76319e-19
1.76342e-19
1.76369e-19
1.76402e-19
1.76445e-19
1.76507e-19
1.76598e-19
1.76734e-19
1.76936e-19
1.77223e-19
1.77615e-19
1.78109e-19
1.78804e-19
1.733e-19
1.74164e-19
1.74751e-19
1.75183e-19
1.75475e-19
1.75664e-19
1.75784e-19
1.75861e-19
1.75912e-19
1.75947e-19
1.75973e-19
1.75993e-19
1.76009e-19
1.76023e-19
1.76037e-19
1.7605e-19
1.76063e-19
1.76076e-19
1.7609e-19
1.76104e-19
1.76119e-19
1.76134e-19
1.76151e-19
1.76168e-19
1.76185e-19
1.76203e-19
1.76223e-19
1.76243e-19
1.76266e-19
1.76292e-19
1.76325e-19
1.7637e-19
1.76432e-19
1.76525e-19
1.76663e-19
1.76868e-19
1.77162e-19
1.77563e-19
1.78074e-19
1.78797e-19
1.73292e-19
1.74124e-19
1.74695e-19
1.75123e-19
1.75419e-19
1.75613e-19
1.75739e-19
1.75821e-19
1.75875e-19
1.75912e-19
1.75939e-19
1.75959e-19
1.75975e-19
1.75989e-19
1.76002e-19
1.76014e-19
1.76025e-19
1.76037e-19
1.76048e-19
1.7606e-19
1.76073e-19
1.76086e-19
1.76099e-19
1.76114e-19
1.76129e-19
1.76145e-19
1.76162e-19
1.76181e-19
1.76202e-19
1.76228e-19
1.7626e-19
1.76305e-19
1.76368e-19
1.76461e-19
1.766e-19
1.76806e-19
1.77103e-19
1.77514e-19
1.7804e-19
1.7879e-19
1.73285e-19
1.74087e-19
1.74644e-19
1.75068e-19
1.75365e-19
1.75564e-19
1.75695e-19
1.75781e-19
1.75839e-19
1.75878e-19
1.75906e-19
1.75928e-19
1.75944e-19
1.75958e-19
1.75971e-19
1.75982e-19
1.75993e-19
1.76003e-19
1.76014e-19
1.76024e-19
1.76035e-19
1.76046e-19
1.76058e-19
1.7607e-19
1.76083e-19
1.76097e-19
1.76112e-19
1.76129e-19
1.76149e-19
1.76174e-19
1.76206e-19
1.76249e-19
1.76311e-19
1.76404e-19
1.76542e-19
1.76748e-19
1.77049e-19
1.77467e-19
1.78008e-19
1.78784e-19
1.73278e-19
1.74053e-19
1.74596e-19
1.75014e-19
1.75312e-19
1.75515e-19
1.75651e-19
1.7574e-19
1.75801e-19
1.75842e-19
1.75872e-19
1.75895e-19
1.75913e-19
1.75928e-19
1.7594e-19
1.75952e-19
1.75963e-19
1.75973e-19
1.75983e-19
1.75993e-19
1.76003e-19
1.76013e-19
1.76024e-19
1.76035e-19
1.76046e-19
1.76058e-19
1.76072e-19
1.76088e-19
1.76106e-19
1.76129e-19
1.7616e-19
1.76202e-19
1.76262e-19
1.76353e-19
1.76489e-19
1.76694e-19
1.76996e-19
1.7742e-19
1.77975e-19
1.78777e-19
1.73272e-19
1.74021e-19
1.7455e-19
1.74962e-19
1.7526e-19
1.75465e-19
1.75604e-19
1.75696e-19
1.75759e-19
1.75803e-19
1.75834e-19
1.75858e-19
1.75878e-19
1.75894e-19
1.75908e-19
1.7592e-19
1.75932e-19
1.75943e-19
1.75953e-19
1.75963e-19
1.75973e-19
1.75983e-19
1.75993e-19
1.76003e-19
1.76014e-19
1.76026e-19
1.76038e-19
1.76052e-19
1.7607e-19
1.76091e-19
1.7612e-19
1.7616e-19
1.76219e-19
1.76306e-19
1.7644e-19
1.76642e-19
1.76943e-19
1.77373e-19
1.77941e-19
1.7877e-19
1.73266e-19
1.73989e-19
1.74504e-19
1.74909e-19
1.75206e-19
1.75412e-19
1.75553e-19
1.75647e-19
1.75712e-19
1.75757e-19
1.7579e-19
1.75815e-19
1.75836e-19
1.75854e-19
1.75869e-19
1.75883e-19
1.75896e-19
1.75909e-19
1.7592e-19
1.75932e-19
1.75942e-19
1.75953e-19
1.75963e-19
1.75974e-19
1.75984e-19
1.75995e-19
1.76008e-19
1.76021e-19
1.76037e-19
1.76058e-19
1.76085e-19
1.76123e-19
1.76179e-19
1.76263e-19
1.76392e-19
1.76591e-19
1.76891e-19
1.77325e-19
1.77907e-19
1.78763e-19
1.73259e-19
1.73958e-19
1.74458e-19
1.74855e-19
1.75148e-19
1.75355e-19
1.75496e-19
1.75591e-19
1.75657e-19
1.75703e-19
1.75737e-19
1.75764e-19
1.75786e-19
1.75805e-19
1.75822e-19
1.75838e-19
1.75854e-19
1.75868e-19
1.75882e-19
1.75895e-19
1.75907e-19
1.75919e-19
1.75931e-19
1.75942e-19
1.75953e-19
1.75965e-19
1.75977e-19
1.75991e-19
1.76007e-19
1.76026e-19
1.76052e-19
1.76088e-19
1.76141e-19
1.76221e-19
1.76345e-19
1.76538e-19
1.76836e-19
1.77274e-19
1.77869e-19
1.78756e-19
1.73253e-19
1.73926e-19
1.7441e-19
1.74798e-19
1.75087e-19
1.75292e-19
1.75432e-19
1.75528e-19
1.75593e-19
1.75639e-19
1.75673e-19
1.75701e-19
1.75724e-19
1.75745e-19
1.75765e-19
1.75783e-19
1.75801e-19
1.75818e-19
1.75834e-19
1.75849e-19
1.75864e-19
1.75878e-19
1.75892e-19
1.75905e-19
1.75918e-19
1.75931e-19
1.75944e-19
1.75958e-19
1.75974e-19
1.75993e-19
1.76018e-19
1.76052e-19
1.76102e-19
1.76177e-19
1.76296e-19
1.76484e-19
1.76777e-19
1.77219e-19
1.77829e-19
1.78748e-19
1.73247e-19
1.73893e-19
1.7436e-19
1.74738e-19
1.75021e-19
1.75222e-19
1.7536e-19
1.75454e-19
1.75518e-19
1.75564e-19
1.75598e-19
1.75626e-19
1.7565e-19
1.75672e-19
1.75694e-19
1.75715e-19
1.75735e-19
1.75755e-19
1.75774e-19
1.75793e-19
1.75811e-19
1.75828e-19
1.75844e-19
1.7586e-19
1.75875e-19
1.7589e-19
1.75905e-19
1.75921e-19
1.75937e-19
1.75957e-19
1.75981e-19
1.76013e-19
1.7606e-19
1.76131e-19
1.76243e-19
1.76425e-19
1.76714e-19
1.77159e-19
1.77784e-19
1.78739e-19
1.7324e-19
1.73858e-19
1.74308e-19
1.74673e-19
1.74948e-19
1.75144e-19
1.75279e-19
1.75371e-19
1.75433e-19
1.75477e-19
1.7551e-19
1.75537e-19
1.75562e-19
1.75585e-19
1.75608e-19
1.75632e-19
1.75655e-19
1.75677e-19
1.757e-19
1.75722e-19
1.75744e-19
1.75764e-19
1.75784e-19
1.75803e-19
1.75822e-19
1.75839e-19
1.75857e-19
1.75874e-19
1.75893e-19
1.75913e-19
1.75937e-19
1.75969e-19
1.76013e-19
1.7608e-19
1.76186e-19
1.7636e-19
1.76645e-19
1.77092e-19
1.77735e-19
1.78729e-19
1.73233e-19
1.73821e-19
1.74252e-19
1.74602e-19
1.74868e-19
1.75058e-19
1.75189e-19
1.75277e-19
1.75336e-19
1.75377e-19
1.75408e-19
1.75435e-19
1.75459e-19
1.75483e-19
1.75508e-19
1.75533e-19
1.75558e-19
1.75584e-19
1.7561e-19
1.75636e-19
1.75661e-19
1.75685e-19
1.75709e-19
1.75732e-19
1.75754e-19
1.75776e-19
1.75796e-19
1.75817e-19
1.75838e-19
1.7586e-19
1.75885e-19
1.75916e-19
1.75958e-19
1.76021e-19
1.76121e-19
1.76288e-19
1.76568e-19
1.77018e-19
1.77679e-19
1.78717e-19
1.73225e-19
1.73783e-19
1.74191e-19
1.74526e-19
1.74781e-19
1.74964e-19
1.75089e-19
1.75172e-19
1.75227e-19
1.75265e-19
1.75294e-19
1.75319e-19
1.75342e-19
1.75366e-19
1.75391e-19
1.75418e-19
1.75445e-19
1.75474e-19
1.75503e-19
1.75532e-19
1.75561e-19
1.7559e-19
1.75618e-19
1.75645e-19
1.75671e-19
1.75697e-19
1.75721e-19
1.75745e-19
1.75769e-19
1.75794e-19
1.75821e-19
1.75853e-19
1.75894e-19
1.75954e-19
1.76048e-19
1.76208e-19
1.76482e-19
1.76935e-19
1.77616e-19
1.78704e-19
1.73218e-19
1.73742e-19
1.74127e-19
1.74444e-19
1.74687e-19
1.7486e-19
1.74979e-19
1.75057e-19
1.75107e-19
1.75141e-19
1.75167e-19
1.7519e-19
1.75212e-19
1.75235e-19
1.7526e-19
1.75287e-19
1.75316e-19
1.75347e-19
1.75379e-19
1.75411e-19
1.75444e-19
1.75476e-19
1.75508e-19
1.7554e-19
1.7557e-19
1.756e-19
1.75629e-19
1.75658e-19
1.75686e-19
1.75714e-19
1.75744e-19
1.75777e-19
1.75818e-19
1.75876e-19
1.75966e-19
1.76119e-19
1.76388e-19
1.76844e-19
1.77546e-19
1.78689e-19
1.73209e-19
1.73698e-19
1.74058e-19
1.74356e-19
1.74584e-19
1.74748e-19
1.74859e-19
1.74931e-19
1.74976e-19
1.75007e-19
1.7503e-19
1.75049e-19
1.75069e-19
1.75091e-19
1.75115e-19
1.75143e-19
1.75173e-19
1.75205e-19
1.75239e-19
1.75274e-19
1.75309e-19
1.75345e-19
1.75381e-19
1.75417e-19
1.75452e-19
1.75486e-19
1.7552e-19
1.75553e-19
1.75585e-19
1.75618e-19
1.75651e-19
1.75687e-19
1.7573e-19
1.75787e-19
1.75874e-19
1.76021e-19
1.76284e-19
1.76742e-19
1.77468e-19
1.78673e-19
1.732e-19
1.73652e-19
1.73985e-19
1.74262e-19
1.74474e-19
1.74626e-19
1.74729e-19
1.74795e-19
1.74835e-19
1.74862e-19
1.74882e-19
1.74898e-19
1.74916e-19
1.74936e-19
1.7496e-19
1.74987e-19
1.75017e-19
1.7505e-19
1.75085e-19
1.75122e-19
1.7516e-19
1.75199e-19
1.75238e-19
1.75277e-19
1.75316e-19
1.75355e-19
1.75393e-19
1.75431e-19
1.75468e-19
1.75506e-19
1.75543e-19
1.75583e-19
1.75629e-19
1.75686e-19
1.75771e-19
1.75914e-19
1.76171e-19
1.76632e-19
1.77381e-19
1.78654e-19
1.73191e-19
1.73603e-19
1.73908e-19
1.74161e-19
1.74356e-19
1.74496e-19
1.7459e-19
1.7465e-19
1.74685e-19
1.74708e-19
1.74725e-19
1.74739e-19
1.74755e-19
1.74774e-19
1.74796e-19
1.74822e-19
1.74852e-19
1.74885e-19
1.74921e-19
1.74959e-19
1.74999e-19
1.7504e-19
1.75081e-19
1.75124e-19
1.75166e-19
1.75209e-19
1.75251e-19
1.75293e-19
1.75336e-19
1.75378e-19
1.75421e-19
1.75466e-19
1.75515e-19
1.75575e-19
1.7566e-19
1.75799e-19
1.76051e-19
1.76514e-19
1.77287e-19
1.78633e-19
1.73182e-19
1.73551e-19
1.73826e-19
1.74055e-19
1.74231e-19
1.74358e-19
1.74442e-19
1.74495e-19
1.74527e-19
1.74547e-19
1.74562e-19
1.74575e-19
1.74589e-19
1.74606e-19
1.74628e-19
1.74653e-19
1.74683e-19
1.74716e-19
1.74752e-19
1.74791e-19
1.74831e-19
1.74873e-19
1.74917e-19
1.74961e-19
1.75006e-19
1.75052e-19
1.75098e-19
1.75144e-19
1.75191e-19
1.75239e-19
1.75287e-19
1.75337e-19
1.75392e-19
1.75456e-19
1.75542e-19
1.75678e-19
1.75926e-19
1.76389e-19
1.77186e-19
1.78611e-19
1.73172e-19
1.73498e-19
1.7374e-19
1.73943e-19
1.74099e-19
1.74211e-19
1.74287e-19
1.74334e-19
1.74362e-19
1.74381e-19
1.74395e-19
1.74407e-19
1.74422e-19
1.74439e-19
1.7446e-19
1.74486e-19
1.74515e-19
1.74548e-19
1.74584e-19
1.74623e-19
1.74664e-19
1.74706e-19
1.74751e-19
1.74796e-19
1.74843e-19
1.74891e-19
1.7494e-19
1.7499e-19
1.75041e-19
1.75093e-19
1.75146e-19
1.75202e-19
1.75263e-19
1.75332e-19
1.75421e-19
1.75556e-19
1.75799e-19
1.76261e-19
1.77081e-19
1.78587e-19
1.73161e-19
1.73442e-19
1.73651e-19
1.73826e-19
1.73961e-19
1.74059e-19
1.74125e-19
1.74167e-19
1.74194e-19
1.74213e-19
1.74228e-19
1.74242e-19
1.74258e-19
1.74277e-19
1.743e-19
1.74326e-19
1.74356e-19
1.74389e-19
1.74425e-19
1.74463e-19
1.74504e-19
1.74547e-19
1.74592e-19
1.74638e-19
1.74685e-19
1.74735e-19
1.74785e-19
1.74838e-19
1.74892e-19
1.74948e-19
1.75006e-19
1.75068e-19
1.75134e-19
1.75209e-19
1.75303e-19
1.75439e-19
1.75677e-19
1.76135e-19
1.76973e-19
1.78561e-19
1.73151e-19
1.73385e-19
1.73559e-19
1.73705e-19
1.73819e-19
1.73902e-19
1.73961e-19
1.74001e-19
1.74028e-19
1.74049e-19
1.74068e-19
1.74086e-19
1.74105e-19
1.74128e-19
1.74153e-19
1.74181e-19
1.74212e-19
1.74246e-19
1.74282e-19
1.74321e-19
1.74361e-19
1.74404e-19
1.74449e-19
1.74495e-19
1.74543e-19
1.74593e-19
1.74645e-19
1.74699e-19
1.74756e-19
1.74815e-19
1.74877e-19
1.74944e-19
1.75016e-19
1.75097e-19
1.75195e-19
1.75332e-19
1.75565e-19
1.76016e-19
1.76867e-19
1.78536e-19
1.7314e-19
1.73328e-19
1.73468e-19
1.73586e-19
1.7368e-19
1.73751e-19
1.73804e-19
1.73844e-19
1.73875e-19
1.73901e-19
1.73925e-19
1.73948e-19
1.73973e-19
1.74e-19
1.74029e-19
1.7406e-19
1.74093e-19
1.74128e-19
1.74165e-19
1.74204e-19
1.74244e-19
1.74287e-19
1.74331e-19
1.74378e-19
1.74426e-19
1.74477e-19
1.7453e-19
1.74585e-19
1.74643e-19
1.74705e-19
1.74771e-19
1.74842e-19
1.74919e-19
1.75005e-19
1.75108e-19
1.75246e-19
1.75473e-19
1.75914e-19
1.76771e-19
1.78511e-19
1.73131e-19
1.73277e-19
1.73386e-19
1.7348e-19
1.73558e-19
1.7362e-19
1.73671e-19
1.73712e-19
1.73748e-19
1.73781e-19
1.73811e-19
1.73842e-19
1.73872e-19
1.73904e-19
1.73937e-19
1.7397e-19
1.74006e-19
1.74042e-19
1.7408e-19
1.7412e-19
1.74161e-19
1.74204e-19
1.74248e-19
1.74295e-19
1.74344e-19
1.74395e-19
1.74448e-19
1.74505e-19
1.74565e-19
1.74629e-19
1.74698e-19
1.74772e-19
1.74854e-19
1.74945e-19
1.75053e-19
1.75192e-19
1.75414e-19
1.75841e-19
1.76695e-19
1.78491e-19
1.73124e-19
1.7324e-19
1.73326e-19
1.73403e-19
1.7347e-19
1.73528e-19
1.73579e-19
1.73624e-19
1.73665e-19
1.73703e-19
1.7374e-19
1.73775e-19
1.73811e-19
1.73846e-19
1.73882e-19
1.73918e-19
1.73955e-19
1.73993e-19
1.74032e-19
1.74072e-19
1.74114e-19
1.74157e-19
1.74202e-19
1.7425e-19
1.74299e-19
1.74351e-19
1.74406e-19
1.74464e-19
1.74526e-19
1.74593e-19
1.74664e-19
1.74742e-19
1.74828e-19
1.74924e-19
1.75035e-19
1.75179e-19
1.75398e-19
1.75813e-19
1.76657e-19
1.78478e-19
1.73126e-19
1.73222e-19
1.73298e-19
1.73368e-19
1.73431e-19
1.73488e-19
1.73539e-19
1.73586e-19
1.7363e-19
1.73672e-19
1.73711e-19
1.7375e-19
1.73787e-19
1.73824e-19
1.73862e-19
1.73899e-19
1.73937e-19
1.73976e-19
1.74016e-19
1.74056e-19
1.74099e-19
1.74143e-19
1.74188e-19
1.74236e-19
1.74286e-19
1.74339e-19
1.74395e-19
1.74455e-19
1.74518e-19
1.74587e-19
1.74661e-19
1.74741e-19
1.7483e-19
1.74929e-19
1.75046e-19
1.75195e-19
1.75421e-19
1.75838e-19
1.76664e-19
1.78357e-19
2.7116e-19
2.74132e-19
2.75413e-19
2.76025e-19
2.76353e-19
2.76575e-19
2.76751e-19
2.76903e-19
2.77038e-19
2.77162e-19
2.77275e-19
2.7738e-19
2.77477e-19
2.77569e-19
2.77655e-19
2.77737e-19
2.77814e-19
2.77888e-19
2.7796e-19
2.78028e-19
2.78094e-19
2.78158e-19
2.78221e-19
2.78282e-19
2.78342e-19
2.78402e-19
2.78461e-19
2.78521e-19
2.78581e-19
2.78643e-19
2.78706e-19
2.78773e-19
2.78844e-19
2.78919e-19
2.79002e-19
2.79093e-19
2.79194e-19
2.79306e-19
2.7943e-19
2.79601e-19
2.70467e-19
7.91144e-19
8.81818e-19
8.92699e-19
8.92779e-19
8.92798e-19
8.92973e-19
8.9326e-19
8.9359e-19
8.94008e-19
8.94373e-19
8.9476e-19
8.95085e-19
8.95394e-19
8.95695e-19
8.95958e-19
8.96196e-19
8.96411e-19
8.96589e-19
8.96733e-19
8.96814e-19
8.9681e-19
8.9678e-19
8.96528e-19
8.95886e-19
8.95062e-19
8.942e-19
8.93381e-19
8.92902e-19
8.92893e-19
8.93716e-19
8.96539e-19
9.01262e-19
9.05212e-19
9.10146e-19
9.15772e-19
9.18763e-19
9.10593e-19
7.99057e-19
2.79635e-19
2.70467e-19
9.09177e-19
1.01983e-18
1.02614e-18
1.02496e-18
1.0249e-18
1.02505e-18
1.02544e-18
1.02586e-18
1.0262e-18
1.02658e-18
1.02702e-18
1.02736e-18
1.02768e-18
1.02805e-18
1.02834e-18
1.02861e-18
1.02887e-18
1.0291e-18
1.02931e-18
1.02948e-18
1.02958e-18
1.02964e-18
1.02968e-18
1.0297e-18
1.02964e-18
1.02959e-18
1.02958e-18
1.02961e-18
1.02949e-18
1.03007e-18
1.0319e-18
1.03362e-18
1.03653e-18
1.03908e-18
1.04342e-18
1.04369e-18
1.02688e-18
8.66749e-19
2.79635e-19
2.70467e-19
9.14092e-19
1.0308e-18
1.03436e-18
1.03387e-18
1.03382e-18
1.03413e-18
1.0345e-18
1.03495e-18
1.0354e-18
1.03591e-18
1.03629e-18
1.03652e-18
1.03687e-18
1.03733e-18
1.03765e-18
1.03792e-18
1.03822e-18
1.03851e-18
1.03879e-18
1.03902e-18
1.03923e-18
1.03924e-18
1.03954e-18
1.03968e-18
1.03975e-18
1.03973e-18
1.03963e-18
1.03914e-18
1.03867e-18
1.0392e-18
1.03945e-18
1.04071e-18
1.04342e-18
1.04394e-18
1.04841e-18
1.04832e-18
1.03096e-18
8.68697e-19
2.79635e-19
2.70467e-19
9.07721e-19
1.0277e-18
1.03152e-18
1.03192e-18
1.03228e-18
1.03317e-18
1.03381e-18
1.03438e-18
1.03489e-18
1.03537e-18
1.0358e-18
1.03621e-18
1.03669e-18
1.03708e-18
1.0374e-18
1.03767e-18
1.03806e-18
1.03844e-18
1.03877e-18
1.03902e-18
1.03921e-18
1.03941e-18
1.0397e-18
1.03986e-18
1.0399e-18
1.0397e-18
1.03922e-18
1.03832e-18
1.03783e-18
1.03765e-18
1.03662e-18
1.03533e-18
1.03985e-18
1.04201e-18
1.04508e-18
1.04762e-18
1.02833e-18
8.67618e-19
2.79635e-19
2.70467e-19
8.9937e-19
1.02287e-18
1.03088e-18
1.03031e-18
1.0308e-18
1.03177e-18
1.03257e-18
1.03324e-18
1.03383e-18
1.03434e-18
1.0348e-18
1.03523e-18
1.03565e-18
1.03604e-18
1.0364e-18
1.0368e-18
1.03719e-18
1.03758e-18
1.03795e-18
1.03825e-18
1.03844e-18
1.03875e-18
1.03895e-18
1.03919e-18
1.03918e-18
1.03888e-18
1.03823e-18
1.0374e-18
1.03653e-18
1.03564e-18
1.03291e-18
1.03263e-18
1.03261e-18
1.03859e-18
1.0395e-18
1.04499e-18
1.02722e-18
8.66799e-19
2.79635e-19
2.70467e-19
8.93354e-19
1.01982e-18
1.02846e-18
1.02909e-18
1.02972e-18
1.03048e-18
1.03144e-18
1.03219e-18
1.03282e-18
1.03335e-18
1.03382e-18
1.03426e-18
1.03467e-18
1.03506e-18
1.03544e-18
1.03583e-18
1.03622e-18
1.03661e-18
1.03699e-18
1.03734e-18
1.03761e-18
1.03789e-18
1.03806e-18
1.03827e-18
1.03837e-18
1.03805e-18
1.03734e-18
1.0364e-18
1.03521e-18
1.03387e-18
1.0307e-18
1.03153e-18
1.03036e-18
1.03282e-18
1.03579e-18
1.04063e-18
1.0252e-18
8.66699e-19
2.79635e-19
2.70467e-19
8.88329e-19
1.01567e-18
1.02354e-18
1.0258e-18
1.02889e-18
1.0297e-18
1.03046e-18
1.03129e-18
1.03193e-18
1.03245e-18
1.03293e-18
1.03334e-18
1.03374e-18
1.03412e-18
1.03449e-18
1.03486e-18
1.03524e-18
1.03562e-18
1.03601e-18
1.03637e-18
1.03667e-18
1.03696e-18
1.03717e-18
1.0372e-18
1.03742e-18
1.03715e-18
1.03652e-18
1.03556e-18
1.03422e-18
1.03278e-18
1.03066e-18
1.0288e-18
1.02798e-18
1.02899e-18
1.03166e-18
1.03733e-18
1.02393e-18
8.67201e-19
2.79635e-19
2.70467e-19
8.84214e-19
1.01256e-18
1.02125e-18
1.02529e-18
1.02798e-18
1.02942e-18
1.03005e-18
1.03056e-18
1.0312e-18
1.03168e-18
1.03214e-18
1.03252e-18
1.0329e-18
1.03325e-18
1.03359e-18
1.03394e-18
1.03429e-18
1.03465e-18
1.03502e-18
1.03538e-18
1.03569e-18
1.03597e-18
1.03621e-18
1.03625e-18
1.03639e-18
1.03627e-18
1.03572e-18
1.0348e-18
1.03343e-18
1.03191e-18
1.03021e-18
1.02756e-18
1.0264e-18
1.02635e-18
1.02853e-18
1.03303e-18
1.02305e-18
8.68258e-19
2.79635e-19
2.70466e-19
8.81327e-19
1.01128e-18
1.02156e-18
1.02492e-18
1.02617e-18
1.02815e-18
1.02958e-18
1.03017e-18
1.03063e-18
1.03096e-18
1.03145e-18
1.03179e-18
1.03215e-18
1.03246e-18
1.03278e-18
1.03309e-18
1.03341e-18
1.03373e-18
1.03407e-18
1.0344e-18
1.03471e-18
1.03498e-18
1.0352e-18
1.03535e-18
1.03543e-18
1.03535e-18
1.03487e-18
1.03403e-18
1.03279e-18
1.03124e-18
1.0298e-18
1.02689e-18
1.02541e-18
1.02467e-18
1.02599e-18
1.02881e-18
1.02251e-18
8.69721e-19
2.79635e-19
2.70466e-19
8.78946e-19
1.00992e-18
1.02072e-18
1.02349e-18
1.02612e-18
1.0279e-18
1.02878e-18
1.02981e-18
1.03012e-18
1.03063e-18
1.03095e-18
1.03116e-18
1.03151e-18
1.03177e-18
1.03206e-18
1.03233e-18
1.03261e-18
1.0329e-18
1.03319e-18
1.03349e-18
1.03379e-18
1.03404e-18
1.03425e-18
1.03442e-18
1.0345e-18
1.03446e-18
1.03404e-18
1.03331e-18
1.03229e-18
1.03025e-18
1.02974e-18
1.02674e-18
1.02524e-18
1.02448e-18
1.0248e-18
1.02627e-18
1.02147e-18
8.71733e-19
2.79635e-19
2.70466e-19
8.77186e-19
1.00924e-18
1.02062e-18
1.02381e-18
1.02602e-18
1.02726e-18
1.02838e-18
1.02911e-18
1.02976e-18
1.03025e-18
1.03046e-18
1.03076e-18
1.03103e-18
1.0312e-18
1.03145e-18
1.03168e-18
1.03192e-18
1.03216e-18
1.03242e-18
1.03268e-18
1.03294e-18
1.03318e-18
1.03338e-18
1.03355e-18
1.0336e-18
1.0336e-18
1.03324e-18
1.03259e-18
1.03178e-18
1.02991e-18
1.02924e-18
1.02666e-18
1.02496e-18
1.0239e-18
1.02448e-18
1.02628e-18
1.01971e-18
8.73808e-19
2.79635e-19
2.70466e-19
8.75457e-19
1.00868e-18
1.0204e-18
1.02353e-18
1.02549e-18
1.02705e-18
1.02815e-18
1.02888e-18
1.02941e-18
1.02978e-18
1.03009e-18
1.0304e-18
1.03056e-18
1.03077e-18
1.03098e-18
1.03114e-18
1.03134e-18
1.03155e-18
1.03176e-18
1.03198e-18
1.0322e-18
1.03241e-18
1.03259e-18
1.03275e-18
1.03278e-18
1.03279e-18
1.0325e-18
1.03194e-18
1.03122e-18
1.03011e-18
1.02863e-18
1.02672e-18
1.02518e-18
1.02445e-18
1.02425e-18
1.02551e-18
1.01878e-18
8.75922e-19
2.79635e-19
2.70466e-19
8.74219e-19
1.00831e-18
1.02032e-18
1.02341e-18
1.02536e-18
1.02681e-18
1.02794e-18
1.02866e-18
1.02917e-18
1.02953e-18
1.02981e-18
1.03004e-18
1.03019e-18
1.03041e-18
1.03055e-18
1.03073e-18
1.03088e-18
1.03104e-18
1.03121e-18
1.03139e-18
1.03157e-18
1.03174e-18
1.03189e-18
1.03206e-18
1.03207e-18
1.03208e-18
1.03184e-18
1.03139e-18
1.03073e-18
1.02995e-18
1.02846e-18
1.02686e-18
1.02539e-18
1.02453e-18
1.02495e-18
1.02574e-18
1.01832e-18
8.78199e-19
2.79634e-19
2.70466e-19
8.73379e-19
1.00801e-18
1.02021e-18
1.02327e-18
1.02517e-18
1.02678e-18
1.02787e-18
1.0285e-18
1.02898e-18
1.02933e-18
1.02959e-18
1.0298e-18
1.02995e-18
1.03011e-18
1.03023e-18
1.03039e-18
1.03049e-18
1.03063e-18
1.03078e-18
1.03092e-18
1.03106e-18
1.0312e-18
1.03133e-18
1.03146e-18
1.03148e-18
1.03147e-18
1.03129e-18
1.03095e-18
1.03027e-18
1.02979e-18
1.02842e-18
1.02707e-18
1.02574e-18
1.02493e-18
1.02531e-18
1.02598e-18
1.0183e-18
8.80559e-19
2.79634e-19
2.70466e-19
8.72775e-19
1.00774e-18
1.02007e-18
1.02313e-18
1.02513e-18
1.02658e-18
1.02748e-18
1.02825e-18
1.02877e-18
1.02914e-18
1.0294e-18
1.0296e-18
1.02975e-18
1.02988e-18
1.02999e-18
1.03011e-18
1.03021e-18
1.03031e-18
1.03043e-18
1.03054e-18
1.03065e-18
1.03077e-18
1.03088e-18
1.03095e-18
1.031e-18
1.03098e-18
1.03083e-18
1.03058e-18
1.03003e-18
1.02957e-18
1.02849e-18
1.02737e-18
1.02619e-18
1.02544e-18
1.0256e-18
1.02659e-18
1.01886e-18
8.82863e-19
2.79634e-19
2.70466e-19
8.72217e-19
1.00739e-18
1.01976e-18
1.02274e-18
1.02468e-18
1.02609e-18
1.02719e-18
1.028e-18
1.02856e-18
1.02895e-18
1.02923e-18
1.02943e-18
1.02957e-18
1.0297e-18
1.0298e-18
1.02989e-18
1.02998e-18
1.03006e-18
1.03015e-18
1.03024e-18
1.03033e-18
1.03042e-18
1.0305e-18
1.03057e-18
1.03061e-18
1.03059e-18
1.03048e-18
1.03023e-18
1.02988e-18
1.02932e-18
1.02849e-18
1.02777e-18
1.02683e-18
1.02593e-18
1.02632e-18
1.02761e-18
1.01934e-18
8.84366e-19
2.79634e-19
2.70466e-19
8.71599e-19
1.00694e-18
1.0193e-18
1.02223e-18
1.02417e-18
1.02567e-18
1.02683e-18
1.0277e-18
1.02831e-18
1.02874e-18
1.02904e-18
1.02925e-18
1.02941e-18
1.02953e-18
1.02962e-18
1.0297e-18
1.02977e-18
1.02984e-18
1.02991e-18
1.02999e-18
1.03006e-18
1.03014e-18
1.03021e-18
1.03027e-18
1.0303e-18
1.0303e-18
1.03023e-18
1.03007e-18
1.02986e-18
1.02943e-18
1.02877e-18
1.02777e-18
1.02691e-18
1.02645e-18
1.0265e-18
1.02752e-18
1.02041e-18
8.87234e-19
2.79634e-19
2.70466e-19
8.70899e-19
1.00637e-18
1.0187e-18
1.02155e-18
1.02352e-18
1.0251e-18
1.02636e-18
1.02732e-18
1.028e-18
1.02849e-18
1.02883e-18
1.02907e-18
1.02924e-18
1.02936e-18
1.02945e-18
1.02952e-18
1.02959e-18
1.02966e-18
1.02972e-18
1.02978e-18
1.02984e-18
1.02991e-18
1.02997e-18
1.03002e-18
1.03006e-18
1.03006e-18
1.03002e-18
1.0299e-18
1.02968e-18
1.02932e-18
1.0288e-18
1.02812e-18
1.02747e-18
1.02708e-18
1.02726e-18
1.02801e-18
1.02063e-18
8.88395e-19
2.79634e-19
2.70466e-19
8.6973e-19
1.00571e-18
1.01796e-18
1.02072e-18
1.02271e-18
1.02439e-18
1.02578e-18
1.02685e-18
1.02763e-18
1.02818e-18
1.02857e-18
1.02884e-18
1.02904e-18
1.02918e-18
1.02927e-18
1.02935e-18
1.02942e-18
1.02948e-18
1.02954e-18
1.0296e-18
1.02966e-18
1.02971e-18
1.02977e-18
1.02983e-18
1.02986e-18
1.02986e-18
1.02983e-18
1.02975e-18
1.02959e-18
1.02931e-18
1.02891e-18
1.0284e-18
1.02787e-18
1.02755e-18
1.02777e-18
1.02847e-18
1.02133e-18
8.89708e-19
2.79634e-19
2.70466e-19
8.68513e-19
1.00485e-18
1.01712e-18
1.01976e-18
1.02176e-18
1.02353e-18
1.02505e-18
1.02628e-18
1.02717e-18
1.02782e-18
1.02826e-18
1.02857e-18
1.0288e-18
1.02897e-18
1.02908e-18
1.02916e-18
1.02924e-18
1.0293e-18
1.02937e-18
1.02942e-18
1.02948e-18
1.02954e-18
1.02959e-18
1.02964e-18
1.02969e-18
1.0297e-18
1.02968e-18
1.02962e-18
1.0295e-18
1.02929e-18
1.02898e-18
1.02858e-18
1.02818e-18
1.02797e-18
1.02818e-18
1.02876e-18
1.02153e-18
8.91276e-19
2.79634e-19
2.70465e-19
8.6712e-19
1.00391e-18
1.01599e-18
1.0186e-18
1.02064e-18
1.02249e-18
1.02424e-18
1.02567e-18
1.02665e-18
1.02739e-18
1.02789e-18
1.02826e-18
1.02851e-18
1.0287e-18
1.02884e-18
1.02894e-18
1.02902e-18
1.0291e-18
1.02917e-18
1.02923e-18
1.0293e-18
1.02935e-18
1.02941e-18
1.02946e-18