/*--------------------------------*- C++ -*----------------------------------*\
  =========                 |
  \\      /  F ield         | OpenFOAM: The Open Source CFD Toolbox
   \\    /   O peration     | Website:  https://openfoam.org
    \\  /    A nd           | Version:  12
     \\/     M anipulation  |
\*---------------------------------------------------------------------------*/
FoamFile
{
    format      ascii;
    class       volScalarField;
    location    "400";
    object      omega;
}
// * * * * * * * * * * * * * * * * * * * * * * * * * * * * * * * * * * * * * //

dimensions      [0 0 -1 0 0 0 0];

internalField   nonuniform List<scalar> 
8000
(
1278.49
1266.39
1260.36
1257.3
1255.65
1254.58
1253.75
1253.05
1252.43
1251.86
1251.35
1250.87
1250.43
1250.01
1249.62
1249.25
1248.9
1248.56
1248.24
1247.93
1247.63
1247.34
1247.06
1246.79
1246.52
1246.25
1245.99
1245.73
1245.46
1245.18
1244.9
1244.6
1244.29
1243.95
1243.57
1243.16
1242.7
1242.19
1241.63
1240.92
1279.34
1266.34
1260.2
1257.14
1255.54
1254.51
1253.72
1253.04
1252.44
1251.9
1251.4
1250.93
1250.5
1250.09
1249.71
1249.35
1249
1248.67
1248.35
1248.05
1247.75
1247.47
1247.19
1246.92
1246.66
1246.4
1246.15
1245.9
1245.65
1245.39
1245.13
1244.86
1244.57
1244.25
1243.88
1243.46
1242.97
1242.41
1241.77
1240.9
1279.43
1266.62
1260.4
1257.27
1255.66
1254.65
1253.89
1253.25
1252.68
1252.16
1251.68
1251.23
1250.81
1250.41
1250.04
1249.68
1249.34
1249.01
1248.69
1248.39
1248.1
1247.82
1247.55
1247.29
1247.04
1246.8
1246.57
1246.35
1246.14
1245.92
1245.71
1245.48
1245.23
1244.94
1244.58
1244.13
1243.56
1242.87
1242.06
1240.96
1279.58
1267.17
1260.94
1257.72
1256.07
1255.07
1254.35
1253.74
1253.2
1252.7
1252.25
1251.81
1251.4
1251.02
1250.64
1250.29
1249.95
1249.62
1249.31
1249.01
1248.72
1248.44
1248.18
1247.93
1247.7
1247.48
1247.28
1247.09
1246.92
1246.76
1246.59
1246.42
1246.21
1245.94
1245.57
1245.06
1244.37
1243.5
1242.45
1241.03
1279.75
1267.88
1261.7
1258.41
1256.71
1255.73
1255.03
1254.46
1253.96
1253.49
1253.06
1252.64
1252.25
1251.87
1251.5
1251.15
1250.81
1250.48
1250.17
1249.87
1249.58
1249.3
1249.04
1248.8
1248.58
1248.38
1248.21
1248.06
1247.92
1247.8
1247.69
1247.55
1247.37
1247.11
1246.7
1246.11
1245.27
1244.19
1242.88
1241.11
1279.94
1268.65
1262.59
1259.25
1257.52
1256.54
1255.87
1255.35
1254.88
1254.45
1254.04
1253.65
1253.27
1252.9
1252.54
1252.2
1251.86
1251.53
1251.22
1250.91
1250.62
1250.35
1250.09
1249.85
1249.64
1249.46
1249.3
1249.17
1249.06
1248.98
1248.89
1248.77
1248.6
1248.32
1247.86
1247.16
1246.18
1244.88
1243.31
1241.19
1280.12
1269.44
1263.53
1260.16
1258.4
1257.42
1256.79
1256.3
1255.88
1255.48
1255.11
1254.74
1254.38
1254.03
1253.69
1253.35
1253.02
1252.7
1252.38
1252.08
1251.79
1251.51
1251.26
1251.02
1250.81
1250.63
1250.48
1250.36
1250.27
1250.19
1250.11
1250
1249.82
1249.51
1248.99
1248.19
1247.05
1245.55
1243.73
1241.27
1280.29
1270.22
1264.48
1261.11
1259.31
1258.33
1257.71
1257.26
1256.88
1256.53
1256.19
1255.85
1255.52
1255.2
1254.87
1254.55
1254.23
1253.92
1253.61
1253.31
1253.02
1252.74
1252.48
1252.25
1252.04
1251.85
1251.7
1251.58
1251.49
1251.41
1251.33
1251.2
1251
1250.65
1250.06
1249.17
1247.88
1246.19
1244.14
1241.34
1280.45
1270.96
1265.41
1262.05
1260.22
1259.21
1258.61
1258.18
1257.84
1257.52
1257.22
1256.92
1256.62
1256.32
1256.02
1255.72
1255.42
1255.12
1254.83
1254.53
1254.25
1253.98
1253.72
1253.48
1253.27
1253.08
1252.92
1252.79
1252.69
1252.6
1252.5
1252.36
1252.13
1251.73
1251.08
1250.09
1248.67
1246.8
1244.52
1241.42
1280.6
1271.65
1266.29
1262.95
1261.08
1260.05
1259.44
1259.03
1258.71
1258.43
1258.16
1257.9
1257.64
1257.37
1257.1
1256.82
1256.55
1256.27
1255.99
1255.71
1255.44
1255.18
1254.92
1254.69
1254.47
1254.28
1254.11
1253.97
1253.85
1253.74
1253.62
1253.45
1253.19
1252.75
1252.04
1250.95
1249.42
1247.38
1244.89
1241.49
1280.74
1272.28
1267.1
1263.8
1261.89
1260.83
1260.2
1259.79
1259.49
1259.24
1259
1258.77
1258.54
1258.31
1258.07
1257.82
1257.57
1257.32
1257.07
1256.81
1256.55
1256.3
1256.06
1255.83
1255.61
1255.42
1255.24
1255.09
1254.95
1254.82
1254.68
1254.48
1254.18
1253.69
1252.92
1251.76
1250.11
1247.92
1245.24
1241.55
1280.85
1272.85
1267.85
1264.58
1262.63
1261.53
1260.87
1260.46
1260.16
1259.93
1259.72
1259.52
1259.32
1259.11
1258.91
1258.7
1258.48
1258.25
1258.03
1257.79
1257.56
1257.33
1257.1
1256.88
1256.67
1256.47
1256.29
1256.13
1255.98
1255.83
1255.66
1255.43
1255.1
1254.57
1253.74
1252.51
1250.76
1248.43
1245.56
1241.61
1280.96
1273.37
1268.54
1265.29
1263.31
1262.15
1261.46
1261.03
1260.74
1260.51
1260.32
1260.14
1259.97
1259.79
1259.62
1259.44
1259.25
1259.06
1258.86
1258.65
1258.45
1258.24
1258.03
1257.82
1257.62
1257.43
1257.25
1257.09
1256.92
1256.76
1256.56
1256.31
1255.94
1255.37
1254.5
1253.2
1251.37
1248.91
1245.87
1241.67
1281.05
1273.83
1269.15
1265.93
1263.91
1262.7
1261.98
1261.52
1261.21
1260.99
1260.81
1260.65
1260.5
1260.35
1260.2
1260.05
1259.89
1259.73
1259.56
1259.38
1259.2
1259.02
1258.83
1258.65
1258.46
1258.29
1258.11
1257.94
1257.77
1257.59
1257.38
1257.1
1256.7
1256.1
1255.19
1253.84
1251.92
1249.35
1246.15
1241.73
1281.14
1274.23
1269.7
1266.51
1264.46
1263.2
1262.42
1261.94
1261.61
1261.39
1261.21
1261.06
1260.93
1260.8
1260.68
1260.55
1260.42
1260.28
1260.14
1259.99
1259.84
1259.68
1259.52
1259.35
1259.19
1259.02
1258.86
1258.69
1258.52
1258.33
1258.11
1257.81
1257.39
1256.76
1255.81
1254.42
1252.43
1249.76
1246.43
1241.78
1281.21
1274.6
1270.19
1267.03
1264.94
1263.63
1262.81
1262.29
1261.95
1261.71
1261.54
1261.39
1261.27
1261.16
1261.05
1260.94
1260.83
1260.72
1260.6
1260.48
1260.35
1260.22
1260.08
1259.94
1259.79
1259.64
1259.49
1259.34
1259.17
1258.98
1258.74
1258.43
1257.99
1257.34
1256.37
1254.94
1252.91
1250.15
1246.68
1241.83
1281.27
1274.92
1270.64
1267.5
1265.39
1264.03
1263.17
1262.61
1262.25
1261.99
1261.81
1261.67
1261.55
1261.45
1261.35
1261.26
1261.17
1261.07
1260.97
1260.87
1260.77
1260.65
1260.54
1260.42
1260.29
1260.16
1260.02
1259.88
1259.71
1259.53
1259.29
1258.97
1258.53
1257.86
1256.88
1255.43
1253.34
1250.51
1246.92
1241.88
1281.33
1275.21
1271.04
1267.93
1265.8
1264.4
1263.49
1262.9
1262.51
1262.25
1262.06
1261.91
1261.79
1261.69
1261.6
1261.52
1261.44
1261.35
1261.27
1261.19
1261.1
1261
1260.91
1260.8
1260.7
1260.58
1260.46
1260.32
1260.17
1259.99
1259.75
1259.44
1258.99
1258.32
1257.33
1255.87
1253.76
1250.86
1247.16
1241.93
1281.39
1275.48
1271.41
1268.34
1266.19
1264.75
1263.81
1263.19
1262.77
1262.49
1262.29
1262.14
1262.02
1261.91
1261.83
1261.74
1261.67
1261.59
1261.52
1261.44
1261.36
1261.28
1261.2
1261.11
1261.02
1260.92
1260.81
1260.69
1260.55
1260.37
1260.14
1259.83
1259.39
1258.73
1257.74
1256.28
1254.14
1251.19
1247.39
1241.97
1281.43
1275.73
1271.76
1268.72
1266.57
1265.1
1264.13
1263.48
1263.05
1262.75
1262.53
1262.37
1262.24
1262.14
1262.04
1261.96
1261.88
1261.81
1261.74
1261.67
1261.59
1261.52
1261.45
1261.37
1261.29
1261.2
1261.1
1260.99
1260.86
1260.69
1260.47
1260.17
1259.74
1259.09
1258.12
1256.66
1254.52
1251.52
1247.62
1242.02
1281.48
1275.97
1272.1
1269.1
1266.95
1265.46
1264.46
1263.8
1263.35
1263.03
1262.8
1262.63
1262.5
1262.38
1262.28
1262.19
1262.11
1262.03
1261.95
1261.88
1261.81
1261.74
1261.67
1261.59
1261.52
1261.43
1261.34
1261.24
1261.12
1260.96
1260.76
1260.47
1260.05
1259.42
1258.47
1257.03
1254.89
1251.85
1247.85
1242.07
1281.53
1276.2
1272.43
1269.48
1267.34
1265.84
1264.83
1264.15
1263.69
1263.36
1263.12
1262.94
1262.79
1262.67
1262.56
1262.45
1262.36
1262.27
1262.19
1262.11
1262.03
1261.95
1261.88
1261.81
1261.73
1261.65
1261.56
1261.47
1261.35
1261.2
1261.01
1260.73
1260.34
1259.73
1258.81
1257.4
1255.27
1252.19
1248.1
1242.11
1281.57
1276.43
1272.77
1269.88
1267.75
1266.26
1265.24
1264.55
1264.08
1263.75
1263.51
1263.31
1263.16
1263.02
1262.89
1262.78
1262.67
1262.56
1262.47
1262.37
1262.28
1262.2
1262.11
1262.03
1261.95
1261.87
1261.78
1261.68
1261.57
1261.43
1261.24
1260.99
1260.61
1260.04
1259.15
1257.77
1255.65
1252.55
1248.36
1242.17
1281.62
1276.66
1273.12
1270.29
1268.2
1266.72
1265.7
1265.01
1264.54
1264.21
1263.96
1263.77
1263.6
1263.45
1263.31
1263.17
1263.05
1262.93
1262.81
1262.7
1262.59
1262.49
1262.39
1262.3
1262.2
1262.11
1262.02
1261.92
1261.8
1261.66
1261.49
1261.24
1260.89
1260.35
1259.5
1258.16
1256.07
1252.94
1248.64
1242.22
1281.67
1276.91
1273.48
1270.73
1268.68
1267.22
1266.22
1265.54
1265.08
1264.75
1264.51
1264.31
1264.13
1263.97
1263.82
1263.67
1263.52
1263.38
1263.24
1263.11
1262.98
1262.85
1262.74
1262.62
1262.51
1262.4
1262.3
1262.19
1262.07
1261.93
1261.75
1261.52
1261.19
1260.68
1259.87
1258.58
1256.52
1253.37
1248.95
1242.29
1281.72
1277.16
1273.87
1271.2
1269.21
1267.78
1266.8
1266.14
1265.7
1265.38
1265.14
1264.94
1264.77
1264.6
1264.43
1264.26
1264.1
1263.93
1263.77
1263.61
1263.46
1263.31
1263.17
1263.03
1262.9
1262.77
1262.64
1262.52
1262.39
1262.24
1262.07
1261.84
1261.53
1261.05
1260.29
1259.04
1257.01
1253.84
1249.3
1242.36
1281.77
1277.43
1274.28
1271.72
1269.78
1268.4
1267.46
1266.82
1266.4
1266.1
1265.87
1265.68
1265.51
1265.33
1265.16
1264.98
1264.79
1264.61
1264.42
1264.23
1264.05
1263.88
1263.7
1263.54
1263.38
1263.23
1263.08
1262.93
1262.78
1262.62
1262.44
1262.22
1261.92
1261.47
1260.75
1259.55
1257.56
1254.36
1249.7
1242.44
1281.83
1277.71
1274.72
1272.27
1270.42
1269.09
1268.18
1267.58
1267.18
1266.91
1266.7
1266.52
1266.35
1266.18
1266
1265.81
1265.61
1265.4
1265.19
1264.98
1264.77
1264.56
1264.36
1264.17
1263.98
1263.8
1263.62
1263.45
1263.27
1263.09
1262.9
1262.67
1262.38
1261.95
1261.27
1260.13
1258.17
1254.95
1250.14
1242.53
1281.88
1278.02
1275.19
1272.87
1271.1
1269.84
1268.98
1268.42
1268.05
1267.8
1267.61
1267.45
1267.29
1267.13
1266.94
1266.75
1266.54
1266.31
1266.09
1265.85
1265.62
1265.38
1265.15
1264.92
1264.7
1264.49
1264.28
1264.08
1263.87
1263.67
1263.46
1263.22
1262.92
1262.51
1261.86
1260.76
1258.84
1255.6
1250.63
1242.63
1281.94
1278.34
1275.69
1273.51
1271.85
1270.66
1269.85
1269.33
1269
1268.78
1268.61
1268.47
1268.33
1268.17
1267.99
1267.79
1267.58
1267.34
1267.1
1266.84
1266.59
1266.33
1266.07
1265.81
1265.56
1265.31
1265.07
1264.83
1264.6
1264.36
1264.12
1263.86
1263.56
1263.15
1262.52
1261.47
1259.59
1256.32
1251.18
1242.74
1282.01
1278.68
1276.23
1274.2
1272.65
1271.54
1270.79
1270.32
1270.02
1269.83
1269.69
1269.56
1269.44
1269.29
1269.12
1268.92
1268.71
1268.47
1268.21
1267.94
1267.67
1267.39
1267.1
1266.82
1266.54
1266.26
1265.98
1265.71
1265.44
1265.17
1264.9
1264.61
1264.28
1263.87
1263.26
1262.24
1260.39
1257.1
1251.79
1242.87
1282.08
1279.04
1276.8
1274.94
1273.51
1272.49
1271.8
1271.37
1271.11
1270.94
1270.82
1270.72
1270.61
1270.47
1270.31
1270.12
1269.9
1269.66
1269.4
1269.12
1268.83
1268.54
1268.24
1267.93
1267.62
1267.32
1267.01
1266.7
1266.4
1266.09
1265.78
1265.46
1265.1
1264.67
1264.06
1263.06
1261.25
1257.95
1252.46
1243.02
1282.15
1279.42
1277.4
1275.72
1274.42
1273.5
1272.88
1272.49
1272.26
1272.12
1272.01
1271.92
1271.81
1271.69
1271.53
1271.34
1271.13
1270.89
1270.63
1270.35
1270.05
1269.74
1269.43
1269.11
1268.78
1268.45
1268.12
1267.78
1267.44
1267.1
1266.75
1266.39
1265.99
1265.53
1264.91
1263.93
1262.15
1258.84
1253.17
1243.18
1282.22
1279.81
1278.03
1276.54
1275.39
1274.57
1274.02
1273.67
1273.47
1273.33
1273.23
1273.14
1273.03
1272.91
1272.75
1272.57
1272.35
1272.11
1271.85
1271.57
1271.27
1270.96
1270.64
1270.3
1269.96
1269.62
1269.26
1268.9
1268.53
1268.16
1267.77
1267.36
1266.93
1266.43
1265.78
1264.81
1263.06
1259.75
1253.92
1243.34
1282.3
1280.23
1278.69
1277.4
1276.4
1275.69
1275.2
1274.89
1274.69
1274.56
1274.45
1274.35
1274.23
1274.09
1273.93
1273.73
1273.52
1273.27
1273.01
1272.73
1272.43
1272.12
1271.79
1271.46
1271.11
1270.75
1270.38
1270
1269.61
1269.2
1268.78
1268.33
1267.85
1267.31
1266.64
1265.65
1263.94
1260.65
1254.68
1243.52
1282.38
1280.65
1279.36
1278.28
1277.44
1276.83
1276.41
1276.11
1275.91
1275.76
1275.62
1275.49
1275.35
1275.18
1275
1274.79
1274.57
1274.32
1274.05
1273.77
1273.47
1273.16
1272.84
1272.5
1272.15
1271.78
1271.4
1271.01
1270.6
1270.17
1269.72
1269.23
1268.71
1268.13
1267.42
1266.42
1264.74
1261.5
1255.43
1243.7
1282.46
1281.06
1280.03
1279.16
1278.47
1277.95
1277.56
1277.27
1277.04
1276.85
1276.67
1276.5
1276.31
1276.12
1275.91
1275.68
1275.44
1275.18
1274.91
1274.63
1274.33
1274.02
1273.69
1273.35
1273
1272.63
1272.25
1271.84
1271.42
1270.97
1270.49
1269.98
1269.42
1268.79
1268.05
1267.05
1265.41
1262.23
1256.11
1243.87
1282.52
1281.44
1280.64
1279.94
1279.37
1278.91
1278.54
1278.23
1277.97
1277.73
1277.5
1277.28
1277.05
1276.82
1276.58
1276.34
1276.08
1275.81
1275.53
1275.24
1274.94
1274.63
1274.3
1273.96
1273.6
1273.23
1272.84
1272.43
1271.99
1271.52
1271.02
1270.48
1269.89
1269.22
1268.45
1267.43
1265.83
1262.76
1256.66
1244.01
1282.58
1281.72
1281.08
1280.51
1280.02
1279.59
1279.22
1278.89
1278.58
1278.3
1278.03
1277.77
1277.51
1277.25
1276.99
1276.72
1276.45
1276.17
1275.88
1275.59
1275.28
1274.97
1274.64
1274.29
1273.93
1273.55
1273.15
1272.72
1272.27
1271.79
1271.27
1270.7
1270.08
1269.38
1268.57
1267.53
1265.95
1262.96
1256.93
1244.1
1282.56
1281.85
1281.29
1280.77
1280.31
1279.89
1279.51
1279.16
1278.83
1278.53
1278.24
1277.96
1277.68
1277.41
1277.13
1276.86
1276.58
1276.3
1276
1275.7
1275.39
1275.07
1274.74
1274.39
1274.02
1273.64
1273.23
1272.79
1272.33
1271.83
1271.29
1270.71
1270.06
1269.34
1268.5
1267.41
1265.78
1262.78
1256.88
1244.94
818.871
809.99
806.223
804.438
803.481
802.836
802.326
801.886
801.494
801.138
800.811
800.508
800.227
799.963
799.714
799.479
799.256
799.042
798.838
798.641
798.451
798.267
798.087
797.912
797.739
797.569
797.399
797.229
797.056
796.88
796.697
796.507
796.305
796.089
795.853
795.594
795.306
794.987
794.633
794.149
820.967
280.663
251.803
248.734
248.712
248.706
248.658
248.578
248.486
248.37
248.268
248.161
248.071
247.985
247.902
247.829
247.763
247.704
247.655
247.615
247.593
247.594
247.602
247.672
247.849
248.077
248.317
248.544
248.678
248.68
248.451
247.669
246.371
245.296
243.966
242.467
241.678
243.846
277.883
794.05
820.968
244.226
217.727
216.388
216.638
216.651
216.619
216.536
216.448
216.375
216.295
216.203
216.132
216.064
215.986
215.925
215.868
215.814
215.766
215.723
215.686
215.665
215.653
215.643
215.641
215.653
215.664
215.665
215.658
215.684
215.562
215.18
214.822
214.219
213.694
212.804
212.749
216.231
256.181
794.051
820.968
242.913
215.41
214.669
214.771
214.781
214.717
214.639
214.546
214.453
214.348
214.269
214.221
214.15
214.054
213.988
213.932
213.87
213.812
213.754
213.706
213.663
213.66
213.599
213.57
213.557
213.56
213.581
213.681
213.777
213.67
213.617
213.36
212.806
212.699
211.791
211.81
215.377
255.607
794.051
820.968
244.618
216.059
215.259
215.177
215.101
214.917
214.783
214.665
214.559
214.458
214.37
214.285
214.187
214.106
214.041
213.984
213.904
213.824
213.757
213.706
213.667
213.625
213.566
213.533
213.526
213.566
213.665
213.851
213.951
213.987
214.2
214.467
213.535
213.092
212.467
211.952
215.927
255.924
794.051
820.968
246.889
217.08
215.393
215.512
215.41
215.208
215.042
214.9
214.779
214.672
214.577
214.488
214.401
214.32
214.246
214.163
214.083
214.002
213.927
213.864
213.825
213.762
213.721
213.671
213.674
213.734
213.867
214.04
214.219
214.403
214.969
215.028
215.033
213.795
213.607
212.485
216.162
256.166
794.051
820.969
248.552
217.729
215.899
215.768
215.636
215.478
215.275
215.121
214.989
214.879
214.78
214.69
214.604
214.523
214.444
214.364
214.284
214.203
214.123
214.052
213.996
213.939
213.904
213.861
213.839
213.906
214.052
214.247
214.493
214.77
215.431
215.258
215.503
214.989
214.373
213.376
216.587
256.196
794.051
820.969
249.958
218.619
216.939
216.459
215.809
215.64
215.481
215.309
215.173
215.065
214.966
214.88
214.797
214.719
214.642
214.564
214.486
214.407
214.328
214.251
214.189
214.13
214.086
214.08
214.036
214.09
214.221
214.419
214.698
214.997
215.44
215.83
216.002
215.789
215.23
214.054
216.856
256.047
794.052
820.969
251.121
219.289
217.423
216.568
216
215.698
215.567
215.461
215.326
215.227
215.13
215.051
214.972
214.9
214.828
214.756
214.683
214.608
214.532
214.457
214.393
214.334
214.284
214.276
214.249
214.272
214.387
214.577
214.862
215.179
215.532
216.089
216.333
216.343
215.885
214.945
217.042
255.736
794.052
820.969
251.944
219.569
217.359
216.646
216.383
215.965
215.664
215.542
215.445
215.378
215.274
215.203
215.129
215.064
214.998
214.933
214.867
214.799
214.729
214.659
214.595
214.54
214.494
214.464
214.446
214.463
214.563
214.736
214.994
215.319
215.619
216.23
216.543
216.7
216.419
215.827
217.156
255.306
794.052
820.969
252.626
219.863
217.537
216.948
216.392
216.017
215.833
215.618
215.552
215.445
215.378
215.335
215.262
215.207
215.148
215.091
215.033
214.973
214.911
214.848
214.787
214.735
214.691
214.656
214.639
214.648
214.735
214.886
215.1
215.525
215.631
216.261
216.578
216.738
216.671
216.36
217.378
254.716
794.052
820.97
253.133
220.011
217.559
216.881
216.414
216.152
215.916
215.764
215.627
215.526
215.481
215.418
215.361
215.327
215.274
215.227
215.176
215.125
215.072
215.018
214.964
214.914
214.873
214.838
214.827
214.826
214.901
215.036
215.205
215.597
215.736
216.279
216.637
216.862
216.738
216.359
217.752
254.111
794.053
820.97
253.633
220.134
217.606
216.94
216.526
216.198
215.965
215.812
215.702
215.623
215.559
215.494
215.461
215.416
215.373
215.339
215.296
215.254
215.21
215.164
215.118
215.075
215.037
215.002
214.996
214.994
215.056
215.172
215.323
215.555
215.864
216.266
216.591
216.745
216.787
216.521
217.951
253.498
794.053
820.97
253.992
220.214
217.623
216.965
216.552
216.247
216.01
215.858
215.751
215.675
215.618
215.569
215.537
215.492
215.461
215.425
215.393
215.36
215.323
215.286
215.249
215.213
215.182
215.147
215.144
215.142
215.192
215.286
215.424
215.588
215.901
216.237
216.546
216.728
216.639
216.473
218.049
252.841
794.053
820.97
254.236
220.28
217.646
216.996
216.593
216.252
216.024
215.893
215.791
215.718
215.663
215.62
215.588
215.555
215.529
215.496
215.474
215.446
215.414
215.384
215.356
215.327
215.3
215.272
215.267
215.269
215.307
215.379
215.52
215.622
215.908
216.193
216.472
216.644
216.563
216.423
218.055
252.163
794.053
820.971
254.412
220.339
217.675
217.025
216.601
216.296
216.106
215.943
215.835
215.758
215.703
215.661
215.63
215.602
215.579
215.555
215.534
215.511
215.487
215.464
215.441
215.417
215.394
215.378
215.369
215.372
215.403
215.456
215.571
215.667
215.894
216.129
216.379
216.536
216.502
216.293
217.935
251.505
794.054
820.971
254.575
220.415
217.742
217.107
216.696
216.398
216.166
215.996
215.879
215.797
215.74
215.698
215.666
215.641
215.62
215.6
215.582
215.564
215.546
215.528
215.509
215.49
215.472
215.458
215.451
215.454
215.478
215.528
215.602
215.721
215.895
216.044
216.243
216.432
216.35
216.078
217.832
251.078
794.054
820.971
254.755
220.514
217.839
217.217
216.805
216.488
216.242
216.06
215.932
215.841
215.778
215.733
215.701
215.676
215.657
215.64
215.625
215.61
215.595
215.58
215.564
215.549
215.533
215.52
215.514
215.515
215.529
215.562
215.607
215.696
215.835
216.044
216.226
216.322
216.313
216.098
217.603
250.266
794.054
820.971
254.96
220.639
217.968
217.36
216.943
216.607
216.341
216.141
215.996
215.894
215.823
215.773
215.737
215.711
215.692
215.677
215.663
215.649
215.636
215.623
215.61
215.597
215.585
215.573
215.565
215.565
215.574
215.598
215.644
215.719
215.83
215.972
216.107
216.191
216.152
215.994
217.557
249.939
794.054
820.972
255.303
220.784
218.128
217.537
217.114
216.757
216.465
216.239
216.075
215.958
215.876
215.819
215.778
215.749
215.729
215.713
215.699
215.686
215.673
215.661
215.649
215.637
215.624
215.614
215.606
215.606
215.614
215.63
215.664
215.721
215.806
215.913
216.024
216.091
216.045
215.898
217.407
249.57
794.054
820.972
255.661
220.973
218.307
217.743
217.316
216.939
216.619
216.36
216.171
216.035
215.941
215.877
215.83
215.793
215.77
215.752
215.737
215.723
215.71
215.698
215.686
215.674
215.663
215.653
215.643
215.64
215.643
215.656
215.682
215.726
215.791
215.875
215.958
216.003
215.959
215.836
217.364
249.131
794.055
820.972
256.071
221.18
218.551
217.99
217.555
217.16
216.791
216.488
216.28
216.125
216.019
215.943
215.889
215.85
215.821
215.799
215.782
215.766
215.751
215.738
215.725
215.713
215.701
215.69
215.68
215.675
215.676
215.684
215.702
215.736
215.786
215.853
215.917
215.949
215.905
215.809
217.325
248.975
794.055
820.972
256.688
221.378
218.695
218.251
217.804
217.369
216.994
216.673
216.407
216.223
216.115
216.025
215.962
215.916
215.882
215.856
215.835
215.817
215.801
215.785
215.77
215.757
215.744
215.732
215.721
215.715
215.713
215.717
215.73
215.756
215.795
215.853
215.906
215.926
215.891
215.812
217.327
248.802
794.055
820.972
257.3
221.648
218.896
218.466
218.078
217.596
217.174
216.853
216.587
216.374
216.243
216.13
216.052
215.998
215.958
215.928
215.903
215.881
215.862
215.843
215.826
215.81
215.796
215.783
215.772
215.764
215.76
215.761
215.77
215.789
215.822
215.873
215.895
215.926
215.911
215.858
217.365
248.696
794.055
820.973
257.904
221.946
219.271
218.702
218.34
217.881
217.439
217.062
216.743
216.516
216.361
216.244
216.154
216.094
216.05
216.015
215.988
215.963
215.941
215.919
215.899
215.882
215.865
215.851
215.836
215.827
215.82
215.818
215.824
215.837
215.863
215.888
215.951
216.023
215.998
215.96
217.447
248.626
794.056
820.973
258.614
222.081
219.501
218.994
218.613
218.163
217.697
217.284
216.901
216.72
216.498
216.373
216.271
216.207
216.153
216.122
216.092
216.064
216.038
216.013
215.991
215.972
215.952
215.937
215.918
215.906
215.898
215.892
215.898
215.91
215.94
215.985
216.061
216.114
216.11
216.095
217.553
248.555
794.056
820.973
259.324
222.155
219.652
219.295
218.938
218.472
217.977
217.528
217.087
216.911
216.663
216.515
216.401
216.338
216.278
216.246
216.211
216.182
216.156
216.13
216.106
216.08
216.057
216.039
216.016
216.008
215.997
215.984
215.992
216.001
216.033
216.081
216.161
216.246
216.257
216.268
217.686
248.45
794.056
820.973
260.085
222.21
219.932
219.573
219.14
218.736
218.247
217.771
217.329
217.073
216.849
216.676
216.549
216.484
216.422
216.385
216.349
216.32
216.293
216.266
216.24
216.214
216.191
216.16
216.141
216.127
216.113
216.088
216.114
216.113
216.151
216.203
216.295
216.337
216.405
216.46
217.831
248.267
794.056
820.974
260.748
222.065
220.073
219.784
219.457
219.029
218.539
218.005
217.602
217.273
217.045
216.852
216.712
216.647
216.582
216.543
216.506
216.476
216.449
216.423
216.396
216.369
216.342
216.315
216.297
216.268
216.245
216.238
216.236
216.218
216.292
216.341
216.395
216.509
216.687
216.708
217.982
248.084
794.056
820.974
261.465
222.023
220.003
219.897
219.705
219.275
218.808
218.13
218.001
217.492
217.25
217.044
216.893
216.825
216.763
216.721
216.684
216.651
216.624
216.599
216.572
216.544
216.516
216.487
216.462
216.438
216.417
216.419
216.376
216.398
216.394
216.508
216.587
216.793
216.932
216.936
218.102
247.802
794.057
820.974
262.069
222.1
219.519
219.814
219.8
219.487
219.085
218.349
218.268
217.732
217.467
217.253
217.097
217.013
216.961
216.915
216.878
216.844
216.816
216.791
216.765
216.737
216.708
216.678
216.65
216.624
216.602
216.59
216.577
216.598
216.581
216.591
216.743
216.952
216.923
217.028
218.134
247.379
794.057
820.974
262.61
222.168
218.975
219.576
219.734
219.598
219.277
218.706
218.361
217.99
217.702
217.481
217.315
217.223
217.182
217.12
217.086
217.053
217.022
216.998
216.973
216.945
216.916
216.885
216.854
216.825
216.8
216.782
216.771
216.777
216.801
216.788
216.785
216.875
217.151
217.368
218.177
246.822
794.057
820.975
263.015
222.156
218.552
219.233
219.494
219.592
219.362
218.985
218.503
218.241
217.95
217.731
217.56
217.447
217.395
217.343
217.305
217.273
217.239
217.214
217.188
217.161
217.131
217.1
217.067
217.035
217.006
216.982
216.966
216.964
216.978
217.022
217.03
217.003
217.23
217.174
217.861
245.976
794.057
820.975
263.249
222.065
218.238
218.733
219.066
219.499
219.149
219.347
218.672
218.416
218.172
217.967
217.795
217.663
217.613
217.577
217.533
217.5
217.46
217.43
217.403
217.375
217.345
217.312
217.275
217.239
217.207
217.176
217.151
217.136
217.136
217.148
217.179
217.116
216.911
216.598
217.505
244.959
794.058
820.975
263.335
221.873
217.709
218.332
218.312
219.311
219.303
219.278
218.76
218.542
218.355
218.175
218.009
217.88
217.841
217.799
217.756
217.729
217.674
217.636
217.603
217.574
217.542
217.508
217.465
217.424
217.388
217.348
217.311
217.283
217.26
217.247
217.243
217.239
217.115
216.428
217.155
243.579
794.058
820.975
263.253
221.898
217.542
217.734
218.173
218.339
219.28
218.962
218.763
218.642
218.564
218.368
218.208
218.104
218.052
218.003
217.977
217.929
217.874
217.825
217.785
217.752
217.718
217.663
217.61
217.565
217.534
217.487
217.435
217.389
217.339
217.29
217.235
217.196
216.958
216.518
216.399
241.698
794.058
820.975
263.105
221.676
217.701
217.439
218.156
218.164
218.606
218.774
218.78
218.856
218.774
218.604
218.522
218.446
218.39
218.335
218.31
218.221
218.167
218.114
218.068
218.018
217.968
217.907
217.852
217.819
217.758
217.67
217.601
217.555
217.478
217.393
217.271
217.099
216.787
216.156
216.186
240.348
794.058
820.976
263.864
222.811
219.055
218.88
219.489
219.919
220.456
220.739
220.996
221.115
221.042
220.977
220.903
220.816
220.726
220.644
220.564
220.482
220.407
220.342
220.28
220.217
220.157
220.094
220.03
219.978
219.908
219.833
219.775
219.688
219.579
219.479
219.348
219.147
218.814
218.121
218.551
242.088
794.059
820.976
286.653
251.767
249.329
249.868
251.102
252.212
253.13
254.142
254.801
255.006
254.966
254.757
254.465
254.146
253.832
253.557
253.387
253.268
253.151
253.055
252.969
252.889
252.813
252.738
252.664
252.592
252.515
252.433
252.361
252.264
252.162
252.026
251.854
251.619
251.235
250.702
252.405
278.216
794.059
820.877
820.393
820.038
819.716
819.425
819.162
818.922
818.701
818.494
818.298
818.111
817.929
817.752
817.576
817.4
817.224
817.045
816.863
816.677
816.486
816.288
816.083
815.87
815.648
815.415
815.169
814.91
814.635
814.34
814.025
813.684
813.313
812.907
812.453
811.932
811.281
810.331
808.583
804.9
796.135
818.814
809.76
806.032
804.322
803.409
802.785
802.283
801.849
801.46
801.106
800.782
800.481
800.201
799.939
799.691
799.457
799.235
799.022
798.818
798.622
798.433
798.249
798.07
797.894
797.722
797.551
797.381
797.21
797.037
796.86
796.678
796.487
796.287
796.072
795.839
795.583
795.298
794.981
794.63
794.149
820.967
206.2
165.85
161.736
161.563
161.573
161.554
161.484
161.408
161.315
161.234
161.14
161.069
160.999
160.933
160.88
160.838
160.806
160.795
160.802
160.838
160.907
160.986
161.175
161.558
162.01
162.472
162.895
163.111
163.079
162.533
161.251
159.447
157.594
155.439
153.138
152.195
156.81
207.861
794.05
820.968
152.355
111.473
108.574
108.436
108.353
108.279
108.202
108.133
108.074
108.02
107.964
107.92
107.878
107.835
107.802
107.774
107.752
107.738
107.734
107.74
107.76
107.788
107.85
107.931
108.025
108.114
108.182
108.195
108.14
107.903
107.453
106.896
106.258
105.69
105.314
106.242
114.418
178.131
794.051
820.968
148.672
106.069
103.627
103.493
103.44
103.383
103.331
103.278
103.229
103.178
103.141
103.11
103.071
103.03
103
102.972
102.944
102.919
102.896
102.88
102.867
102.864
102.856
102.859
102.87
102.889
102.914
102.949
102.951
102.875
102.799
102.661
102.458
102.403
102.403
103.604
112.234
177.039
794.051
820.968
150.571
105.892
103.362
103.207
103.147
103.065
103.003
102.948
102.898
102.851
102.811
102.769
102.726
102.689
102.658
102.627
102.591
102.557
102.529
102.506
102.488
102.468
102.447
102.438
102.439
102.464
102.512
102.581
102.611
102.646
102.719
102.749
102.434
102.347
102.396
103.517
112.2
177.175
794.051
820.968
153.669
106.378
103.46
103.317
103.247
103.157
103.085
103.023
102.969
102.921
102.878
102.836
102.796
102.759
102.723
102.685
102.648
102.611
102.579
102.552
102.531
102.507
102.487
102.474
102.476
102.509
102.569
102.64
102.725
102.828
103.015
103.029
102.979
102.67
102.748
103.637
112.155
177.106
794.051
820.969
156.327
107.02
103.638
103.401
103.347
103.275
103.192
103.125
103.069
103.02
102.976
102.934
102.895
102.857
102.821
102.783
102.746
102.708
102.673
102.643
102.618
102.594
102.577
102.561
102.558
102.591
102.658
102.743
102.857
103.003
103.203
103.197
103.266
103.119
103.066
103.831
112.044
176.706
794.051
820.969
158.573
107.732
104.037
103.675
103.432
103.358
103.287
103.216
103.159
103.111
103.068
103.028
102.991
102.955
102.919
102.883
102.846
102.81
102.774
102.741
102.714
102.69
102.671
102.662
102.653
102.678
102.74
102.83
102.953
103.09
103.274
103.438
103.505
103.46
103.397
103.982
111.822
176.046
794.052
820.969
160.477
108.378
104.356
103.788
103.524
103.401
103.339
103.29
103.235
103.191
103.149
103.113
103.078
103.045
103.011
102.978
102.944
102.909
102.875
102.841
102.813
102.789
102.768
102.759
102.751
102.767
102.821
102.908
103.031
103.169
103.331
103.559
103.672
103.703
103.659
104.217
111.546
175.166
794.052
820.969
161.907
108.804
104.443
103.862
103.682
103.506
103.391
103.338
103.296
103.262
103.22
103.188
103.155
103.126
103.095
103.065
103.035
103.003
102.971
102.939
102.911
102.887
102.867
102.852
102.846
102.857
102.903
102.982
103.095
103.234
103.376
103.627
103.768
103.861
103.882
104.443
111.241
174.108
794.052
820.969
163.022
109.18
104.584
103.992
103.72
103.552
103.464
103.381
103.346
103.304
103.275
103.252
103.221
103.196
103.169
103.143
103.116
103.088
103.06
103.031
103.004
102.98
102.961
102.944
102.937
102.944
102.984
103.051
103.15
103.313
103.391
103.644
103.787
103.874
103.971
104.56
110.968
172.971
794.052
820.97
163.834
109.456
104.662
104.013
103.75
103.613
103.511
103.443
103.387
103.347
103.324
103.297
103.273
103.255
103.231
103.21
103.186
103.163
103.138
103.113
103.088
103.066
103.047
103.031
103.026
103.028
103.061
103.12
103.2
103.351
103.436
103.657
103.815
103.923
103.976
104.51
110.725
171.624
794.053
820.97
164.404
109.669
104.733
104.06
103.804
103.645
103.54
103.473
103.425
103.391
103.363
103.336
103.32
103.3
103.281
103.265
103.245
103.226
103.205
103.184
103.163
103.143
103.126
103.11
103.106
103.107
103.134
103.183
103.249
103.35
103.484
103.657
103.807
103.914
103.988
104.495