/*--------------------------------*- C++ -*----------------------------------*\
  =========                 |
  \\      /  F ield         | OpenFOAM: The Open Source CFD Toolbox
   \\    /   O peration     | Website:  https://openfoam.org
    \\  /    A nd           | Version:  12
     \\/     M anipulation  |
\*---------------------------------------------------------------------------*/
FoamFile
{
    format      ascii;
    class       volScalarField;
    location    "400";
    object      p_rgh;
}
// * * * * * * * * * * * * * * * * * * * * * * * * * * * * * * * * * * * * * //

dimensions      [1 -1 -2 0 0 0 0];

internalField   nonuniform List<scalar> 
8000
(
-7.29984
-7.29958
-7.29937
-7.29919
-7.29905
-7.29892
-7.2988
-7.29869
-7.29857
-7.29846
-7.29836
-7.29825
-7.29814
-7.29804
-7.29793
-7.29783
-7.29773
-7.29763
-7.29753
-7.29743
-7.29734
-7.29724
-7.29715
-7.29705
-7.29696
-7.29687
-7.29677
-7.29668
-7.29658
-7.29648
-7.29637
-7.29626
-7.29614
-7.29601
-7.29589
-7.29576
-7.29565
-7.29556
-7.2955
-7.29548
-7.30002
-7.29963
-7.29936
-7.29917
-7.29904
-7.29891
-7.2988
-7.29869
-7.29857
-7.29847
-7.29836
-7.29825
-7.29814
-7.29804
-7.29794
-7.29783
-7.29773
-7.29763
-7.29753
-7.29744
-7.29734
-7.29724
-7.29715
-7.29706
-7.29696
-7.29687
-7.29678
-7.29668
-7.29658
-7.29648
-7.29638
-7.29627
-7.29615
-7.29603
-7.2959
-7.29578
-7.29566
-7.29557
-7.2955
-7.29547
-7.30035
-7.29978
-7.29942
-7.29919
-7.29905
-7.29892
-7.29881
-7.2987
-7.29859
-7.29848
-7.29837
-7.29827
-7.29816
-7.29806
-7.29795
-7.29785
-7.29775
-7.29765
-7.29755
-7.29745
-7.29736
-7.29726
-7.29717
-7.29707
-7.29698
-7.29689
-7.2968
-7.29671
-7.29661
-7.29652
-7.29642
-7.29631
-7.2962
-7.29608
-7.29596
-7.29583
-7.2957
-7.29559
-7.2955
-7.29544
-7.30077
-7.30002
-7.29953
-7.29926
-7.29909
-7.29896
-7.29885
-7.29874
-7.29863
-7.29852
-7.29842
-7.29831
-7.29821
-7.2981
-7.298
-7.29789
-7.29779
-7.29769
-7.29759
-7.2975
-7.2974
-7.2973
-7.29721
-7.29712
-7.29703
-7.29694
-7.29685
-7.29676
-7.29667
-7.29659
-7.29649
-7.2964
-7.29629
-7.29617
-7.29605
-7.29591
-7.29576
-7.29562
-7.29549
-7.29539
-7.30125
-7.30033
-7.29972
-7.29938
-7.29918
-7.29904
-7.29892
-7.29881
-7.29871
-7.2986
-7.2985
-7.29839
-7.29829
-7.29818
-7.29808
-7.29798
-7.29787
-7.29777
-7.29767
-7.29757
-7.29748
-7.29738
-7.29729
-7.2972
-7.29711
-7.29702
-7.29694
-7.29686
-7.29678
-7.2967
-7.29661
-7.29652
-7.29643
-7.29631
-7.29618
-7.29603
-7.29585
-7.29567
-7.29549
-7.29533
-7.30176
-7.30069
-7.29996
-7.29954
-7.29931
-7.29915
-7.29903
-7.29893
-7.29882
-7.29872
-7.29861
-7.29851
-7.29841
-7.2983
-7.2982
-7.2981
-7.298
-7.29789
-7.29779
-7.29769
-7.2976
-7.2975
-7.29741
-7.29732
-7.29723
-7.29715
-7.29707
-7.29699
-7.29692
-7.29685
-7.29677
-7.29669
-7.2966
-7.29649
-7.29634
-7.29617
-7.29595
-7.29572
-7.29548
-7.29525
-7.30229
-7.30108
-7.30024
-7.29974
-7.29947
-7.2993
-7.29918
-7.29907
-7.29897
-7.29887
-7.29877
-7.29867
-7.29857
-7.29846
-7.29836
-7.29826
-7.29816
-7.29806
-7.29795
-7.29786
-7.29776
-7.29766
-7.29757
-7.29748
-7.29739
-7.29731
-7.29723
-7.29716
-7.2971
-7.29703
-7.29696
-7.29689
-7.29679
-7.29668
-7.29652
-7.29633
-7.29607
-7.29578
-7.29547
-7.29515
-7.30281
-7.30149
-7.30055
-7.29998
-7.29967
-7.29948
-7.29935
-7.29924
-7.29914
-7.29905
-7.29895
-7.29885
-7.29875
-7.29865
-7.29855
-7.29845
-7.29835
-7.29825
-7.29815
-7.29805
-7.29795
-7.29786
-7.29776
-7.29767
-7.29759
-7.29751
-7.29743
-7.29737
-7.2973
-7.29724
-7.29717
-7.2971
-7.29701
-7.29689
-7.29672
-7.29649
-7.29619
-7.29583
-7.29544
-7.29503
-7.30334
-7.30192
-7.30088
-7.30025
-7.29989
-7.29967
-7.29953
-7.29943
-7.29933
-7.29924
-7.29915
-7.29905
-7.29896
-7.29886
-7.29877
-7.29867
-7.29857
-7.29847
-7.29838
-7.29828
-7.29818
-7.29808
-7.29799
-7.2979
-7.29782
-7.29774
-7.29766
-7.29759
-7.29753
-7.29747
-7.29741
-7.29733
-7.29724
-7.29711
-7.29692
-7.29666
-7.29632
-7.29589
-7.2954
-7.29488
-7.30385
-7.30235
-7.30123
-7.30053
-7.30012
-7.29988
-7.29973
-7.29962
-7.29952
-7.29943
-7.29935
-7.29926
-7.29917
-7.29908
-7.29899
-7.2989
-7.29881
-7.29871
-7.29862
-7.29852
-7.29842
-7.29833
-7.29824
-7.29815
-7.29806
-7.29798
-7.29791
-7.29784
-7.29778
-7.29772
-7.29765
-7.29757
-7.29748
-7.29733
-7.29713
-7.29683
-7.29644
-7.29593
-7.29535
-7.29472
-7.30436
-7.30279
-7.30159
-7.30082
-7.30036
-7.30009
-7.29993
-7.29981
-7.29971
-7.29963
-7.29955
-7.29947
-7.29938
-7.2993
-7.29922
-7.29913
-7.29904
-7.29895
-7.29886
-7.29877
-7.29868
-7.29859
-7.2985
-7.29841
-7.29833
-7.29825
-7.29817
-7.2981
-7.29804
-7.29797
-7.29791
-7.29782
-7.29772
-7.29756
-7.29733
-7.297
-7.29655
-7.29596
-7.29528
-7.29453
-7.30485
-7.30323
-7.30196
-7.30112
-7.30061
-7.30031
-7.30012
-7.29999
-7.2999
-7.29981
-7.29973
-7.29966
-7.29958
-7.29951
-7.29943
-7.29935
-7.29927
-7.29919
-7.2991
-7.29902
-7.29893
-7.29885
-7.29876
-7.29867
-7.29859
-7.29851
-7.29844
-7.29837
-7.2983
-7.29824
-7.29817
-7.29808
-7.29796
-7.29779
-7.29753
-7.29716
-7.29666
-7.29599
-7.29519
-7.29432
-7.30534
-7.30365
-7.30232
-7.30142
-7.30085
-7.30052
-7.30031
-7.30017
-7.30006
-7.29998
-7.29991
-7.29984
-7.29977
-7.2997
-7.29963
-7.29956
-7.29948
-7.29941
-7.29933
-7.29925
-7.29917
-7.29909
-7.29901
-7.29893
-7.29886
-7.29878
-7.29871
-7.29864
-7.29857
-7.2985
-7.29842
-7.29832
-7.29819
-7.298
-7.29772
-7.29732
-7.29675
-7.296
-7.29509
-7.29409
-7.30581
-7.30408
-7.30268
-7.30171
-7.3011
-7.30072
-7.30049
-7.30033
-7.30022
-7.30013
-7.30006
-7.29999
-7.29993
-7.29987
-7.2998
-7.29974
-7.29968
-7.29961
-7.29954
-7.29947
-7.2994
-7.29933
-7.29925
-7.29918
-7.29911
-7.29903
-7.29896
-7.29889
-7.29882
-7.29875
-7.29867
-7.29856
-7.29842
-7.29822
-7.29791
-7.29746
-7.29684
-7.296
-7.29498
-7.29383
-7.30627
-7.30449
-7.30304
-7.30201
-7.30134
-7.30092
-7.30065
-7.30048
-7.30036
-7.30027
-7.30019
-7.30013
-7.30007
-7.30001
-7.29996
-7.2999
-7.29984
-7.29979
-7.29973
-7.29967
-7.2996
-7.29954
-7.29947
-7.29941
-7.29934
-7.29927
-7.2992
-7.29914
-7.29907
-7.29899
-7.2989
-7.29879
-7.29864
-7.29842
-7.29808
-7.2976
-7.29691
-7.29599
-7.29485
-7.29356
-7.30672
-7.3049
-7.30339
-7.3023
-7.30158
-7.30111
-7.30081
-7.30062
-7.30048
-7.30039
-7.30031
-7.30025
-7.30019
-7.30014
-7.30009
-7.30004
-7.29999
-7.29994
-7.29989
-7.29983
-7.29978
-7.29972
-7.29967
-7.29961
-7.29955
-7.29949
-7.29942
-7.29936
-7.29929
-7.29922
-7.29912
-7.29901
-7.29884
-7.2986
-7.29824
-7.29772
-7.29697
-7.29597
-7.2947
-7.29327
-7.30717
-7.3053
-7.30374
-7.30259
-7.30181
-7.3013
-7.30097
-7.30075
-7.3006
-7.30049
-7.30041
-7.30035
-7.30029
-7.30024
-7.3002
-7.30015
-7.30011
-7.30007
-7.30002
-7.29998
-7.29993
-7.29988
-7.29983
-7.29978
-7.29973
-7.29968
-7.29962
-7.29956
-7.29949
-7.29942
-7.29932
-7.2992
-7.29903
-7.29877
-7.29839
-7.29783
-7.29703
-7.29593
-7.29455
-7.29297
-7.3076
-7.30569
-7.30408
-7.30287
-7.30204
-7.30149
-7.30112
-7.30088
-7.30071
-7.3006
-7.30051
-7.30044
-7.30039
-7.30034
-7.3003
-7.30026
-7.30022
-7.30018
-7.30014
-7.3001
-7.30006
-7.30002
-7.29998
-7.29993
-7.29989
-7.29984
-7.29979
-7.29973
-7.29967
-7.2996
-7.2995
-7.29938
-7.2992
-7.29893
-7.29853
-7.29793
-7.29708
-7.2959
-7.29439
-7.29265
-7.30802
-7.30608
-7.30442
-7.30316
-7.30227
-7.30167
-7.30128
-7.30101
-7.30083
-7.3007
-7.30061
-7.30054
-7.30048
-7.30043
-7.30039
-7.30035
-7.30031
-7.30027
-7.30024
-7.3002
-7.30017
-7.30013
-7.3001
-7.30006
-7.30002
-7.29998
-7.29993
-7.29988
-7.29983
-7.29975
-7.29966
-7.29953
-7.29935
-7.29907
-7.29866
-7.29803
-7.29712
-7.29586
-7.29422
-7.29232
-7.30844
-7.30646
-7.30476
-7.30345
-7.30251
-7.30187
-7.30144
-7.30115
-7.30096
-7.30082
-7.30072
-7.30064
-7.30058
-7.30053
-7.30048
-7.30044
-7.3004
-7.30037
-7.30033
-7.3003
-7.30027
-7.30024
-7.3002
-7.30017
-7.30014
-7.3001
-7.30006
-7.30001
-7.29996
-7.29989
-7.2998
-7.29967
-7.29949
-7.2992
-7.29877
-7.29812
-7.29717
-7.29581
-7.29405
-7.29199
-7.30885
-7.30683
-7.30509
-7.30374
-7.30276
-7.30208
-7.30162
-7.30131
-7.3011
-7.30095
-7.30084
-7.30076
-7.30069
-7.30063
-7.30059
-7.30054
-7.3005
-7.30047
-7.30043
-7.3004
-7.30037
-7.30033
-7.3003
-7.30027
-7.30024
-7.30021
-7.30017
-7.30013
-7.30008
-7.30001
-7.29992
-7.2998
-7.29961
-7.29933
-7.29889
-7.29822
-7.29721
-7.29578
-7.29388
-7.29164
-7.30925
-7.30721
-7.30543
-7.30404
-7.30302
-7.30231
-7.30182
-7.30149
-7.30127
-7.30111
-7.30099
-7.3009
-7.30083
-7.30077
-7.30072
-7.30067
-7.30062
-7.30058
-7.30054
-7.30051
-7.30047
-7.30044
-7.30041
-7.30037
-7.30034
-7.30031
-7.30028
-7.30024
-7.30019
-7.30012
-7.30004
-7.29992
-7.29973
-7.29945
-7.29901
-7.29832
-7.29727
-7.29576
-7.29372
-7.2913
-7.30964
-7.30758
-7.30577
-7.30435
-7.30329
-7.30255
-7.30205
-7.3017
-7.30147
-7.3013
-7.30118
-7.30109
-7.30101
-7.30094
-7.30088
-7.30082
-7.30077
-7.30072
-7.30068
-7.30064
-7.3006
-7.30056
-7.30052
-7.30049
-7.30045
-7.30042
-7.30038
-7.30034
-7.3003
-7.30023
-7.30015
-7.30003
-7.29985
-7.29957
-7.29913
-7.29843
-7.29735
-7.29575
-7.29357
-7.29095
-7.31002
-7.30794
-7.30612
-7.30467
-7.30359
-7.30283
-7.30231
-7.30195
-7.30171
-7.30154
-7.30142
-7.30132
-7.30123
-7.30116
-7.30109
-7.30103
-7.30097
-7.30091
-7.30086
-7.3008
-7.30075
-7.30071
-7.30066
-7.30062
-7.30058
-7.30054
-7.3005
-7.30046
-7.30041
-7.30035
-7.30027
-7.30016
-7.29998
-7.29971
-7.29927
-7.29856
-7.29744
-7.29576
-7.29343
-7.29059
-7.31039
-7.30831
-7.30648
-7.30501
-7.30391
-7.30314
-7.3026
-7.30225
-7.302
-7.30183
-7.30171
-7.30161
-7.30152
-7.30144
-7.30136
-7.30129
-7.30122
-7.30115
-7.30109
-7.30102
-7.30096
-7.3009
-7.30085
-7.3008
-7.30075
-7.3007
-7.30065
-7.30061
-7.30055
-7.30049
-7.30041
-7.3003
-7.30013
-7.29986
-7.29943
-7.29872
-7.29757
-7.29581
-7.29332
-7.29025
-7.31074
-7.30868
-7.30685
-7.30537
-7.30427
-7.30348
-7.30295
-7.30259
-7.30235
-7.30218
-7.30206
-7.30196
-7.30187
-7.30179
-7.30171
-7.30163
-7.30154
-7.30146
-7.30138
-7.30131
-7.30123
-7.30116
-7.30109
-7.30102
-7.30096
-7.3009
-7.30085
-7.30079
-7.30073
-7.30066
-7.30058
-7.30047
-7.3003
-7.30004
-7.29962
-7.29891
-7.29774
-7.29589
-7.29323
-7.2899
-7.31109
-7.30904
-7.30723
-7.30576
-7.30466
-7.30387
-7.30334
-7.30299
-7.30275
-7.3026
-7.30248
-7.30239
-7.3023
-7.30221
-7.30213
-7.30204
-7.30195
-7.30185
-7.30176
-7.30167
-7.30158
-7.30149
-7.3014
-7.30132
-7.30124
-7.30117
-7.3011
-7.30103
-7.30096
-7.30088
-7.30079
-7.30068
-7.30051
-7.30026
-7.29985
-7.29914
-7.29795
-7.29602
-7.29317
-7.28956
-7.31142
-7.30941
-7.30762
-7.30617
-7.30508
-7.30431
-7.30378
-7.30344
-7.30322
-7.30308
-7.30297
-7.30289
-7.30281
-7.30272
-7.30263
-7.30254
-7.30244
-7.30233
-7.30223
-7.30212
-7.30201
-7.3019
-7.3018
-7.3017
-7.3016
-7.30151
-7.30142
-7.30133
-7.30125
-7.30116
-7.30106
-7.30094
-7.30078
-7.30053
-7.30012
-7.29942
-7.29821
-7.29619
-7.29315
-7.28923
-7.31174
-7.30978
-7.30803
-7.30662
-7.30555
-7.30479
-7.30428
-7.30396
-7.30376
-7.30363
-7.30354
-7.30346
-7.30339
-7.30331
-7.30323
-7.30313
-7.30302
-7.30291
-7.30279
-7.30266
-7.30254
-7.30242
-7.30229
-7.30217
-7.30206
-7.30194
-7.30183
-7.30173
-7.30162
-7.30151
-7.3014
-7.30127
-7.3011
-7.30086
-7.30046
-7.29976
-7.29853
-7.29643
-7.29318
-7.28891
-7.31204
-7.31014
-7.30846
-7.30709
-7.30606
-7.30533
-7.30484
-7.30454
-7.30436
-7.30425
-7.30418
-7.30412
-7.30406
-7.30398
-7.3039
-7.3038
-7.30369
-7.30357
-7.30344
-7.30331
-7.30317
-7.30303
-7.30289
-7.30275
-7.30261
-7.30247
-7.30234
-7.30221
-7.30208
-7.30196
-7.30182
-7.30168
-7.3015
-7.30125
-7.30085
-7.30016
-7.29892
-7.29673
-7.29325
-7.2886
-7.31232
-7.31051
-7.3089
-7.3076
-7.30661
-7.30592
-7.30546
-7.30519
-7.30503
-7.30494
-7.30489
-7.30484
-7.30479
-7.30473
-7.30465
-7.30456
-7.30445
-7.30433
-7.30419
-7.30404
-7.30389
-7.30374
-7.30358
-7.30342
-7.30327
-7.30311
-7.30295
-7.3028
-7.30265
-7.30249
-7.30234
-7.30217
-7.30197
-7.30171
-7.30131
-7.30063
-7.29936
-7.29709
-7.29338
-7.2883
-7.31259
-7.31089
-7.30937
-7.30814
-7.30721
-7.30656
-7.30615
-7.3059
-7.30577
-7.3057
-7.30566
-7.30563
-7.30559
-7.30554
-7.30547
-7.30538
-7.30528
-7.30515
-7.30501
-7.30486
-7.3047
-7.30454
-7.30436
-7.30419
-7.30402
-7.30384
-7.30366
-7.30348
-7.3033
-7.30312
-7.30294
-7.30274
-7.30252
-7.30224
-7.30184
-7.30115
-7.29987
-7.29751
-7.29355
-7.28802
-7.31284
-7.31126
-7.30986
-7.30871
-7.30786
-7.30727
-7.30689
-7.30668
-7.30657
-7.30651
-7.30649
-7.30647
-7.30645
-7.3064
-7.30634
-7.30626
-7.30615
-7.30603
-7.30589
-7.30573
-7.30557
-7.3054
-7.30522
-7.30503
-7.30484
-7.30465
-7.30445
-7.30425
-7.30404
-7.30384
-7.30362
-7.30339
-7.30314
-7.30284
-7.30241
-7.30172
-7.30043
-7.29799
-7.29378
-7.28775
-7.31307
-7.31164
-7.31036
-7.30933
-7.30856
-7.30803
-7.3077
-7.30751
-7.30743
-7.30738
-7.30737
-7.30736
-7.30733
-7.30729
-7.30723
-7.30715
-7.30705
-7.30692
-7.30678
-7.30663
-7.30646
-7.30629
-7.3061
-7.30591
-7.30571
-7.3055
-7.30529
-7.30507
-7.30484
-7.30461
-7.30436
-7.3041
-7.30382
-7.30348
-7.30303
-7.30232
-7.30102
-7.29851
-7.29405
-7.2875
-7.31329
-7.31202
-7.31089
-7.30997
-7.30931
-7.30885
-7.30857
-7.30841
-7.30833
-7.30829
-7.30827
-7.30825
-7.30823
-7.30818
-7.30812
-7.30803
-7.30792
-7.3078
-7.30766
-7.30751
-7.30734
-7.30716
-7.30698
-7.30678
-7.30657
-7.30636
-7.30613
-7.3059
-7.30565
-7.3054
-7.30512
-7.30483
-7.30451
-7.30413
-7.30365
-7.30292
-7.30161
-7.29906
-7.29436
-7.28727
-7.31349
-7.3124
-7.31144
-7.31066
-7.31009
-7.30971
-7.30946
-7.30932
-7.30924
-7.3092
-7.30916
-7.30913
-7.30908
-7.30902
-7.30895
-7.30885
-7.30874
-7.30861
-7.30847
-7.30832
-7.30815
-7.30797
-7.30779
-7.30759
-7.30738
-7.30716
-7.30693
-7.30668
-7.30642
-7.30614
-7.30585
-7.30552
-7.30517
-7.30475
-7.30424
-7.30349
-7.30218
-7.2996
-7.29469
-7.28705
-7.31367
-7.31278
-7.31199
-7.31136
-7.31089
-7.31057
-7.31035
-7.31021
-7.31012
-7.31005
-7.30998
-7.30992
-7.30985
-7.30976
-7.30967
-7.30956
-7.30943
-7.3093
-7.30915
-7.309
-7.30883
-7.30865
-7.30847
-7.30827
-7.30806
-7.30783
-7.3076
-7.30734
-7.30707
-7.30678
-7.30646
-7.30611
-7.30572
-7.30527
-7.30473
-7.30396
-7.30266
-7.30007
-7.29501
-7.28685
-7.31383
-7.31311
-7.31249
-7.31199
-7.31161
-7.31133
-7.31113
-7.31098
-7.31085
-7.31075
-7.31065
-7.31055
-7.31045
-7.31034
-7.31022
-7.31009
-7.30996
-7.30981
-7.30966
-7.3095
-7.30933
-7.30915
-7.30896
-7.30876
-7.30855
-7.30832
-7.30808
-7.30782
-7.30754
-7.30723
-7.30689
-7.30652
-7.3061
-7.30562
-7.30505
-7.30426
-7.30298
-7.30043
-7.29527
-7.28667
-7.31394
-7.31336
-7.31286
-7.31246
-7.31213
-7.31188
-7.31167
-7.3115
-7.31135
-7.31122
-7.31108
-7.31095
-7.31082
-7.31069
-7.31055
-7.31041
-7.31027
-7.31011
-7.30996
-7.30979
-7.30962
-7.30944
-7.30924
-7.30904
-7.30882
-7.30859
-7.30834
-7.30807
-7.30777
-7.30745
-7.3071
-7.3067
-7.30626
-7.30575
-7.30515
-7.30434
-7.30306
-7.30056
-7.29537
-7.28648
-7.31399
-7.31348
-7.31304
-7.31267
-7.31237
-7.31213
-7.31191
-7.31173
-7.31156
-7.31141
-7.31126
-7.31111
-7.31097
-7.31082
-7.31068
-7.31053
-7.31038
-7.31022
-7.31006
-7.30989
-7.30971
-7.30953
-7.30933
-7.30912
-7.3089
-7.30866
-7.30841
-7.30813
-7.30782
-7.30749
-7.30712
-7.30671
-7.30625
-7.30572
-7.30509
-7.30425
-7.30292
-7.30041
-7.29528
-7.28632
-7.29981
-7.29955
-7.29935
-7.29918
-7.29904
-7.29891
-7.2988
-7.29868
-7.29857
-7.29846
-7.29835
-7.29825
-7.29814
-7.29803
-7.29793
-7.29783
-7.29773
-7.29763
-7.29753
-7.29743
-7.29733
-7.29724
-7.29714
-7.29705
-7.29696
-7.29686
-7.29677
-7.29668
-7.29658
-7.29648
-7.29637
-7.29626
-7.29613
-7.29601
-7.29588
-7.29575
-7.29564
-7.29555
-7.29549
-7.29547
-7.29996
-7.29957
-7.29932
-7.29915
-7.29902
-7.2989
-7.29879
-7.29868
-7.29857
-7.29846
-7.29835
-7.29825
-7.29814
-7.29804
-7.29793
-7.29783
-7.29773
-7.29763
-7.29753
-7.29743
-7.29734
-7.29724
-7.29715
-7.29705
-7.29696
-7.29687
-7.29677
-7.29668
-7.29658
-7.29648
-7.29638
-7.29627
-7.29615
-7.29603
-7.2959
-7.29577
-7.29565
-7.29556
-7.29549
-7.29547
-7.30028
-7.29969
-7.29936
-7.29915
-7.29902
-7.29891
-7.2988
-7.29869
-7.29858
-7.29847
-7.29836
-7.29826
-7.29815
-7.29805
-7.29795
-7.29784
-7.29774
-7.29764
-7.29754
-7.29745
-7.29735
-7.29725
-7.29716
-7.29707
-7.29698
-7.29688
-7.29679
-7.2967
-7.29661
-7.29651
-7.29641
-7.29631
-7.2962
-7.29608
-7.29596
-7.29582
-7.29569
-7.29558
-7.29549
-7.29544
-7.3007
-7.29992
-7.29944
-7.29921
-7.29906
-7.29894
-7.29883
-7.29872
-7.29862
-7.29851
-7.2984
-7.2983
-7.29819
-7.29809
-7.29799
-7.29789
-7.29778
-7.29768
-7.29758
-7.29749
-7.29739
-7.29729
-7.2972
-7.29711
-7.29702
-7.29693
-7.29684
-7.29675
-7.29667
-7.29658
-7.29649
-7.2964
-7.2963
-7.29618
-7.29606
-7.29591
-7.29577
-7.29562
-7.29549
-7.29539
-7.30118
-7.30022
-7.29962
-7.29931
-7.29914
-7.29901
-7.2989
-7.2988
-7.29869
-7.29859
-7.29848
-7.29838
-7.29827
-7.29817
-7.29807
-7.29796
-7.29786
-7.29776
-7.29766
-7.29756
-7.29747
-7.29737
-7.29728
-7.29719
-7.2971
-7.29701
-7.29693
-7.29685
-7.29677
-7.29669
-7.29661
-7.29653
-7.29644
-7.29633
-7.2962
-7.29604
-7.29586
-7.29568
-7.29549
-7.29533
-7.3017
-7.30057
-7.29985
-7.29946
-7.29926
-7.29913
-7.29901
-7.29891
-7.29881
-7.2987
-7.2986
-7.2985
-7.2984
-7.29829
-7.29819
-7.29809
-7.29798
-7.29788
-7.29778
-7.29768
-7.29759
-7.29749
-7.2974
-7.29731
-7.29722
-7.29714
-7.29706
-7.29699
-7.29691
-7.29685
-7.29677
-7.2967
-7.29661
-7.29651
-7.29636
-7.2962
-7.29597
-7.29574
-7.29549
-7.29525
-7.30223
-7.30095
-7.30011
-7.29966
-7.29942
-7.29927
-7.29916
-7.29905
-7.29895
-7.29886
-7.29876
-7.29865
-7.29855
-7.29845
-7.29835
-7.29825
-7.29815
-7.29805
-7.29794
-7.29784
-7.29775
-7.29765
-7.29756
-7.29747
-7.29738
-7.2973
-7.29723
-7.29716
-7.29709
-7.29703
-7.29696
-7.2969
-7.29681
-7.29671
-7.29655
-7.29636
-7.2961
-7.2958
-7.29548
-7.29515
-7.30276
-7.30137
-7.30042
-7.29989
-7.29961
-7.29944
-7.29933
-7.29922
-7.29913
-7.29903
-7.29894
-7.29884
-7.29874
-7.29864
-7.29854
-7.29844
-7.29834
-7.29824
-7.29814
-7.29804
-7.29794
-7.29785
-7.29775
-7.29766
-7.29758
-7.2975
-7.29743
-7.29736
-7.2973
-7.29724
-7.29718
-7.29711
-7.29703
-7.29692
-7.29676
-7.29654
-7.29623
-7.29586
-7.29546
-7.29503
-7.30329
-7.3018
-7.30075
-7.30015
-7.29982
-7.29964
-7.29951
-7.29941
-7.29932
-7.29923
-7.29914
-7.29904
-7.29895
-7.29886
-7.29876
-7.29866
-7.29856
-7.29847
-7.29837
-7.29827
-7.29817
-7.29807
-7.29798
-7.29789
-7.29781
-7.29773
-7.29765
-7.29759
-7.29753
-7.29747
-7.29741
-7.29735
-7.29726
-7.29714
-7.29696
-7.29671
-7.29637
-7.29592
-7.29542
-7.29489
-7.30381
-7.30224
-7.3011
-7.30042
-7.30005
-7.29984
-7.29971
-7.2996
-7.29951
-7.29942
-7.29934
-7.29925
-7.29917
-7.29908
-7.29899
-7.29889
-7.2988
-7.2987
-7.29861
-7.29851
-7.29842
-7.29832
-7.29823
-7.29814
-7.29806
-7.29798
-7.2979
-7.29784
-7.29778
-7.29772
-7.29766
-7.29759
-7.2975
-7.29737
-7.29717
-7.29689
-7.29649
-7.29597
-7.29537
-7.29473
-7.30432
-7.30268
-7.30146
-7.30071
-7.30029
-7.30005
-7.2999
-7.29979
-7.2997
-7.29962
-7.29954
-7.29946
-7.29938
-7.2993
-7.29921
-7.29912
-7.29904
-7.29895
-7.29886
-7.29876
-7.29867
-7.29858
-7.29849
-7.2984
-7.29832
-7.29824
-7.29817
-7.2981
-7.29804
-7.29798
-7.29791
-7.29784
-7.29774
-7.2976
-7.29738
-7.29706
-7.29662
-7.29602
-7.29531
-7.29454
-7.30482
-7.30312
-7.30182
-7.301
-7.30053
-7.30026
-7.30009
-7.29998
-7.29988
-7.2998
-7.29973
-7.29965
-7.29958
-7.2995
-7.29943
-7.29935
-7.29927
-7.29918
-7.2991
-7.29901
-7.29893
-7.29884
-7.29875
-7.29867
-7.29859
-7.29851
-7.29843
-7.29837
-7.2983
-7.29824
-7.29817
-7.29809
-7.29798
-7.29782
-7.29758
-7.29723
-7.29672
-7.29605
-7.29523
-7.29433
-7.3053
-7.30355
-7.30219
-7.3013
-7.30078
-7.30047
-7.30028
-7.30015
-7.30005
-7.29997
-7.2999
-7.29983
-7.29976
-7.2997
-7.29963
-7.29955
-7.29948
-7.29941
-7.29933
-7.29925
-7.29917
-7.29909
-7.29901
-7.29893
-7.29885
-7.29877
-7.2987
-7.29863
-7.29857
-7.2985
-7.29843
-7.29834
-7.29822
-7.29804
-7.29778
-7.29738
-7.29683
-7.29607
-7.29513
-7.2941
-7.30578
-7.30398
-7.30256
-7.3016
-7.30102
-7.30067
-7.30046
-7.30031
-7.30021
-7.30012
-7.30005
-7.29999
-7.29993
-7.29986
-7.2998
-7.29974
-7.29968
-7.29961
-7.29954
-7.29947
-7.2994
-7.29932
-7.29925
-7.29918
-7.2991
-7.29903
-7.29896
-7.29889
-7.29882
-7.29875
-7.29868
-7.29858
-7.29845
-7.29825
-7.29796
-7.29753
-7.29692
-7.29607
-7.29502
-7.29385
-7.30624
-7.3044
-7.30292
-7.3019
-7.30126
-7.30087
-7.30062
-7.30046
-7.30035
-7.30026
-7.30019
-7.30012
-7.30007
-7.30001
-7.29996
-7.2999
-7.29984
-7.29979
-7.29973
-7.29967
-7.2996
-7.29954
-7.29947
-7.2994
-7.29934
-7.29927
-7.2992
-7.29914
-7.29907
-7.299
-7.29891
-7.29881
-7.29866
-7.29845
-7.29814
-7.29767
-7.29699
-7.29607
-7.2949
-7.29358
-7.3067
-7.30481
-7.30327
-7.30219
-7.30149
-7.30106
-7.30078
-7.3006
-7.30047
-7.30038
-7.3003
-7.30024
-7.30019
-7.30014
-7.30009
-7.30004
-7.29999
-7.29994
-7.29989
-7.29983
-7.29978
-7.29972
-7.29967
-7.29961
-7.29955
-7.29949
-7.29942
-7.29936
-7.29929
-7.29922
-7.29913
-7.29902
-7.29887
-7.29864
-7.2983
-7.2978
-7.29706
-7.29605
-7.29476
-7.29329
-7.30714
-7.30521
-7.30362
-7.30248
-7.30172
-7.30124
-7.30093
-7.30073
-7.30059
-7.30049
-7.30041
-7.30035
-7.30029
-7.30024
-7.3002
-7.30015
-7.30011
-7.30007
-7.30002
-7.29998
-7.29993
-7.29988
-7.29983
-7.29978
-7.29973
-7.29968
-7.29962
-7.29956
-7.2995
-7.29942
-7.29933
-7.29922
-7.29905
-7.29881
-7.29845
-7.29791
-7.29712
-7.29603
-7.29461
-7.29299
-7.30757
-7.30561
-7.30396
-7.30276
-7.30195
-7.30143
-7.30108
-7.30086
-7.3007
-7.30059
-7.30051
-7.30044
-7.30039
-7.30034
-7.3003
-7.30025
-7.30022
-7.30018
-7.30014
-7.3001
-7.30006
-7.30002
-7.29998
-7.29993
-7.29989
-7.29984
-7.29979
-7.29974
-7.29967
-7.2996
-7.29951
-7.29939
-7.29922
-7.29897
-7.29859
-7.29802
-7.29718
-7.296
-7.29446
-7.29267
-7.308
-7.30599
-7.3043
-7.30305
-7.30219
-7.30161
-7.30124
-7.30099
-7.30082
-7.30069
-7.3006
-7.30053
-7.30048
-7.30043
-7.30039
-7.30035
-7.30031
-7.30027
-7.30024
-7.30021
-7.30017
-7.30014
-7.3001
-7.30006
-7.30002
-7.29998
-7.29994
-7.29989
-7.29983
-7.29976
-7.29967
-7.29955
-7.29938
-7.29911
-7.29872
-7.29812
-7.29723
-7.29597
-7.2943
-7.29235
-7.30842
-7.30638
-7.30464
-7.30333
-7.30242
-7.30181
-7.3014
-7.30113
-7.30094
-7.30081
-7.30071
-7.30063
-7.30057
-7.30052
-7.30048
-7.30044
-7.3004
-7.30037
-7.30033
-7.3003
-7.30027
-7.30024
-7.30021
-7.30017
-7.30014
-7.3001
-7.30006
-7.30002
-7.29996
-7.2999
-7.29981
-7.29969
-7.29951
-7.29925
-7.29884
-7.29822
-7.29728
-7.29593
-7.29414
-7.29201
-7.30883
-7.30675
-7.30498
-7.30362
-7.30267
-7.30201
-7.30158
-7.30128
-7.30108
-7.30094
-7.30083
-7.30075
-7.30069
-7.30063
-7.30058
-7.30054
-7.3005
-7.30046
-7.30043
-7.3004
-7.30037
-7.30033
-7.3003
-7.30027
-7.30024
-7.30021
-7.30017
-7.30013
-7.30008
-7.30002
-7.29994
-7.29982
-7.29964
-7.29937
-7.29896
-7.29832
-7.29734
-7.29591
-7.29398
-7.29167
-7.30923
-7.30713
-7.30532
-7.30392
-7.30292
-7.30224
-7.30177
-7.30146
-7.30125
-7.3011
-7.30098
-7.3009
-7.30083
-7.30077
-7.30071
-7.30066
-7.30062
-7.30058
-7.30054
-7.3005
-7.30047
-7.30044
-7.30041
-7.30037
-7.30034
-7.30031
-7.30028
-7.30024
-7.30019
-7.30013
-7.30005
-7.29994
-7.29976
-7.2995
-7.29908
-7.29842
-7.29741
-7.2959
-7.29383
-7.29133
-7.30962
-7.3075
-7.30566
-7.30423
-7.3032
-7.30248
-7.302
-7.30167
-7.30145
-7.30129
-7.30117
-7.30108
-7.301
-7.30094
-7.30088
-7.30082
-7.30077
-7.30072
-7.30068
-7.30063
-7.30059
-7.30056
-7.30052
-7.30049
-7.30045
-7.30042
-7.30038
-7.30035
-7.3003
-7.30024
-7.30016
-7.30005
-7.29988
-7.29962
-7.2992
-7.29854
-7.2975
-7.29591
-7.29369
-7.29098
-7.31
-7.30786
-7.306
-7.30455
-7.30349
-7.30275
-7.30225
-7.30192
-7.30169
-7.30153
-7.30141
-7.30131
-7.30123
-7.30116
-7.30109
-7.30103
-7.30097
-7.30091
-7.30085
-7.3008
-7.30075
-7.30071
-7.30066
-7.30062
-7.30058
-7.30054
-7.30051
-7.30046
-7.30042
-7.30036
-7.30028
-7.30018
-7.30001
-7.29976
-7.29935
-7.29868
-7.29761
-7.29594
-7.29357
-7.29064
-7.31037
-7.30823
-7.30636
-7.30489
-7.30381
-7.30306
-7.30255
-7.30221
-7.30198
-7.30182
-7.3017
-7.3016
-7.30152
-7.30144
-7.30136
-7.30129
-7.30122
-7.30115
-7.30109
-7.30102
-7.30096
-7.3009
-7.30085
-7.3008
-7.30075
-7.3007
-7.30066
-7.30061
-7.30056
-7.3005
-7.30042
-7.30032
-7.30016
-7.29991
-7.29951
-7.29885
-7.29775
-7.29601
-7.29347
-7.29029
-7.31073
-7.3086
-7.30672
-7.30524
-7.30416
-7.3034
-7.30289
-7.30255
-7.30233
-7.30217
-7.30205
-7.30196
-7.30187
-7.30179
-7.30171
-7.30163
-7.30155
-7.30146
-7.30138
-7.30131
-7.30123
-7.30116
-7.30109
-7.30103
-7.30096
-7.30091
-7.30085
-7.30079
-7.30073
-7.30067
-7.30059
-7.30049
-7.30033
-7.3001
-7.29971
-7.29905
-7.29794
-7.29612
-7.29341
-7.28996
-7.31107
-7.30896
-7.3071
-7.30563
-7.30454
-7.30378
-7.30328
-7.30294
-7.30273
-7.30258
-7.30248
-7.30239
-7.3023
-7.30222
-7.30213
-7.30204
-7.30195
-7.30186
-7.30176
-7.30167
-7.30158
-7.30149
-7.30141
-7.30132
-7.30125
-7.30117
-7.3011
-7.30103
-7.30096
-7.30089
-7.3008
-7.3007
-7.30055
-7.30032
-7.29994
-7.2993
-7.29817
-7.29627
-7.29338
-7.28963
-7.3114
-7.30933
-7.30749
-7.30604
-7.30496
-7.30421
-7.30371
-7.3034
-7.3032
-7.30307
-7.30297
-7.30289
-7.30281
-7.30273
-7.30264
-7.30255
-7.30245
-7.30234
-7.30223
-7.30212
-7.30202
-7.30191
-7.30181
-7.30171
-7.30161
-7.30152
-7.30143
-7.30134
-7.30126
-7.30117
-7.30108
-7.30096
-7.30082
-7.30059
-7.30023
-7.29959
-7.29846
-7.29649
-7.2934
-7.28931
-7.31172
-7.30969
-7.3079
-7.30647
-7.30542
-7.30469
-7.30421
-7.30391
-7.30373
-7.30362
-7.30354
-7.30347
-7.3034
-7.30333
-7.30324
-7.30314
-7.30304
-7.30292
-7.3028
-7.30268
-7.30255
-7.30243
-7.3023
-7.30218
-7.30207
-7.30195
-7.30184
-7.30174
-7.30163
-7.30153
-7.30142
-7.3013
-7.30114
-7.30092
-7.30057
-7.29995
-7.29881
-7.29677
-7.29346
-7.28901
-7.31202
-7.31006
-7.30832
-7.30694
-7.30592
-7.30522
-7.30476
-7.30449
-7.30433
-7.30424
-7.30417
-7.30412
-7.30407
-7.304
-7.30392
-7.30382
-7.30371
-7.30359
-7.30346
-7.30333
-7.30319
-7.30305
-7.3029
-7.30276
-7.30263
-7.30249
-7.30236
-7.30223
-7.3021
-7.30198
-7.30185
-7.30171
-7.30155
-7.30132
-7.30097
-7.30036
-7.29922
-7.29711
-7.29359
-7.28872
-7.31231
-7.31044
-7.30877
-7.30744
-7.30647
-7.3058
-7.30537
-7.30513
-7.30499
-7.30493
-7.30488
-7.30485
-7.30481
-7.30475
-7.30468
-7.30459
-7.30448
-7.30435
-7.30422
-7.30407
-7.30392
-7.30376
-7.30361
-7.30345
-7.30329
-7.30313
-7.30298
-7.30282
-7.30267
-7.30252
-7.30237
-7.30221
-7.30202
-7.30179
-7.30144
-7.30084
-7.2997
-7.29753
-7.29377
-7.28845
-7.31258
-7.31081
-7.30924
-7.30798
-7.30706
-7.30644
-7.30605
-7.30583
-7.30573
-7.30568
-7.30566
-7.30564
-7.30561
-7.30557
-7.3055
-7.30542
-7.30531
-7.30518
-7.30504
-7.30489
-7.30473
-7.30457
-7.3044
-7.30422
-7.30405
-7.30387
-7.30369
-7.30352
-7.30334
-7.30316
-7.30298
-7.30279
-7.30259
-7.30233
-7.30197
-7.30138
-7.30024
-7.29801
-7.29402
-7.2882
-7.31283
-7.31119
-7.30973
-7.30855
-7.30771
-7.30713
-7.30679
-7.3066
-7.30653
-7.30649
-7.30649
-7.30648
-7.30647
-7.30644
-7.30638
-7.3063
-7.30619
-7.30607
-7.30593
-7.30578
-7.30561
-7.30544
-7.30526
-7.30507
-7.30488
-7.30469
-7.3045
-7.3043
-7.30409
-7.30389
-7.30368
-7.30346
-7.30322
-7.30294
-7.30256
-7.30196
-7.30083
-7.29856
-7.29433
-7.28797
-7.31306
-7.31157
-7.31025
-7.30917
-7.30841
-7.30789
-7.30759
-7.30744
-7.30739
-7.30736
-7.30737
-7.30737
-7.30736
-7.30733
-7.30728
-7.3072
-7.3071
-7.30697
-7.30684
-7.30668
-7.30652
-7.30634
-7.30616
-7.30596
-7.30577
-7.30556
-7.30535
-7.30513
-7.30491
-7.30468
-7.30444
-7.30418
-7.30391
-7.30359
-7.30319
-7.30258
-7.30145
-7.29916
-7.2947
-7.28776
-7.31328
-7.31196
-7.31078
-7.30982
-7.30916
-7.30872
-7.30847
-7.30834
-7.30829
-7.30827
-7.30828
-7.30828
-7.30826
-7.30823
-7.30817
-7.30809
-7.30798
-7.30786
-7.30772
-7.30757
-7.30741
-7.30723
-7.30704
-7.30685
-7.30664
-7.30643
-7.30621
-7.30598
-7.30574
-7.30548
-7.30522
-7.30493
-7.30462
-7.30427
-7.30383
-7.3032
-7.30207
-7.29977
-7.29511
-7.28758
-7.31349
-7.31235
-7.31135
-7.31054
-7.30997
-7.3096
-7.30938
-7.30928
-7.30922
-7.3092
-7.30919
-7.30917
-7.30913
-7.30908
-7.30901
-7.30892
-7.30881
-7.30868
-7.30854
-7.30839
-7.30823
-7.30805
-7.30787
-7.30767
-7.30746
-7.30725
-7.30702
-7.30678
-7.30652
-7.30625
-7.30596
-7.30565
-7.3053
-7.30491
-7.30444
-7.30378
-7.30267
-7.30037
-7.29555
-7.28742
-7.31367
-7.31274
-7.31192
-7.31127
-7.3108
-7.31051
-7.3103
-7.3102
-7.31013
-7.31008
-7.31003
-7.30998
-7.30991
-7.30983
-7.30974
-7.30963
-7.30951
-7.30938
-7.30923
-7.30908
-7.30892
-7.30874
-7.30856
-7.30836
-7.30815
-7.30793
-7.3077
-7.30745
-7.30719
-7.3069
-7.30659
-7.30625
-7.30588
-7.30545
-7.30494
-7.30427
-7.30317
-7.30089
-7.29593
-7.28726
-7.31383
-7.31309
-7.31246
-7.31195
-7.31158
-7.31132
-7.31114
-7.31101
-7.3109
-7.31081
-7.31072
-7.31062
-7.31052
-7.31041
-7.31029
-7.31017
-7.31004
-7.30989
-7.30974
-7.30958
-7.30942
-7.30924
-7.30906
-7.30886
-7.30865
-7.30843
-7.30819
-7.30793
-7.30766
-7.30736
-7.30703
-7.30667
-7.30627
-7.30581
-7.30527
-7.30457
-7.30348
-7.30125
-7.29622
-7.28709
-7.31394
-7.31336
-7.31286
-7.31247
-7.31215
-7.31192
-7.31172
-7.31156
-7.31142
-7.31129
-7.31116
-7.31103
-7.31089
-7.31076
-7.31062
-7.31048
-7.31034
-7.31019
-7.31003
-7.30986
-7.30969
-7.30951
-7.30932
-7.30912
-7.30891
-7.30868
-7.30844
-7.30817
-7.30788
-7.30757
-7.30722
-7.30684
-7.30641
-7.30592
-7.30535
-7.30462
-7.30351
-7.30132
-7.29627
-7.28688
-7.31399
-7.31348
-7.31304
-7.31269
-7.3124
-7.31216
-7.31196
-7.31178
-7.31162
-7.31146
-7.31131
-7.31116
-7.31102
-7.31087
-7.31073
-7.31058
-7.31042
-7.31027
-7.31011
-7.30994
-7.30976
-7.30958
-7.30938
-7.30918
-7.30896
-7.30872
-7.30847
-7.30819
-7.30789
-7.30756
-7.3072
-7.30679
-7.30634
-7.30582
-7.30521
-7.30443
-7.30324
-7.30095
-7.29596
-7.28664
-7.2998
-7.29954
-7.29933
-7.29917
-7.29904
-7.29891
-7.29879
-7.29868
-7.29857
-7.29846
-7.29835
-7.29824
-7.29814
-7.29803
-7.29793
-7.29783
-7.29773
-7.29763
-7.29753
-7.29743
-7.29733
-7.29724
-7.29714
-7.29705
-7.29696
-7.29686
-7.29677
-7.29667
-7.29658
-7.29647
-7.29637
-7.29625
-7.29613
-7.296
-7.29587
-7.29575
-7.29563
-7.29554
-7.29548
-7.29547
-7.29994
-7.29954
-7.2993
-7.29914
-7.29902
-7.2989
-7.29879
-7.29867
-7.29857
-7.29846
-7.29835
-7.29824
-7.29814
-7.29803
-7.29793
-7.29783
-7.29773
-7.29763
-7.29753
-7.29743
-7.29733
-7.29724
-7.29714
-7.29705
-7.29696
-7.29686
-7.29677
-7.29668
-7.29658
-7.29648
-7.29638
-7.29626
-7.29615
-7.29602
-7.2959
-7.29577
-7.29565
-7.29555
-7.29549
-7.29546
-7.30025
-7.29965
-7.29933
-7.29913
-7.29901
-7.2989
-7.29879
-7.29868
-7.29857
-7.29847
-7.29836
-7.29825
-7.29815
-7.29805
-7.29794