/*--------------------------------*- C++ -*----------------------------------*\
  =========                 |
  \\      /  F ield         | OpenFOAM: The Open Source CFD Toolbox
   \\    /   O peration     | Website:  https://openfoam.org
    \\  /    A nd           | Version:  12
     \\/     M anipulation  |
\*---------------------------------------------------------------------------*/
FoamFile
{
    format      ascii;
    class       surfaceScalarField;
    location    "400";
    object      phi;
}
// * * * * * * * * * * * * * * * * * * * * * * * * * * * * * * * * * * * * * //

dimensions      [1 0 -1 0 0 0 0];

internalField   nonuniform List<scalar> 
22000
(
-1.87566e-08
2.19707e-08
-3.21414e-09
-2.78069e-08
1.26691e-08
-3.6189e-09
-2.96775e-08
4.00524e-09
-2.13466e-09
-2.8912e-08
4.62549e-10
-1.2281e-09
-2.81651e-08
-1.03326e-10
-6.43631e-10
-2.76702e-08
-6.50887e-11
-4.29888e-10
-2.7375e-08
3.69787e-11
-3.32275e-10
-2.71693e-08
8.0789e-11
-2.86483e-10
-2.70069e-08
9.13848e-11
-2.53924e-10
-2.68469e-08
8.37956e-11
-2.4382e-10
-2.66791e-08
6.26353e-11
-2.30469e-10
-2.64915e-08
3.77167e-11
-2.25359e-10
-2.62888e-08
1.29771e-11
-2.15759e-10
-2.60706e-08
-1.00378e-11
-2.08179e-10
-2.58359e-08
-3.33829e-11
-2.01339e-10
-2.55888e-08
-5.42335e-11
-1.92903e-10
-2.53333e-08
-7.18067e-11
-1.83769e-10
-2.5073e-08
-8.64882e-11
-1.73831e-10
-2.48151e-08
-9.56489e-11
-1.62262e-10
-2.45692e-08
-9.69152e-11
-1.49064e-10
-2.43487e-08
-8.61127e-11
-1.34449e-10
-2.41798e-08
-5.45135e-11
-1.14391e-10
-2.40724e-08
-7.33304e-12
-1.00143e-10
-2.40698e-08
6.29377e-11
-6.5551e-11
-2.41895e-08
1.66002e-10
-4.63139e-11
-2.44642e-08
3.06998e-10
-3.24183e-11
-2.49185e-08
4.80282e-10
-2.59651e-11
-2.55688e-08
6.84705e-10
-3.44671e-11
-2.64076e-08
9.04781e-10
-6.6034e-11
-2.73912e-08
1.11398e-09
-1.30525e-10
-2.84244e-08
1.26981e-09
-2.36643e-10
-2.92763e-08
1.23187e-09
-3.80005e-10
-2.9616e-08
9.96406e-10
-6.56741e-10
-2.89763e-08
3.73699e-10
-1.0135e-09
-2.70314e-08
-5.55055e-10
-1.38992e-09
-2.32924e-08
-1.93456e-09
-1.80443e-09
-1.78587e-08
-3.3774e-09
-2.05632e-09
-1.11913e-08
-4.63377e-09
-2.0337e-09
-4.46184e-09
-5.16853e-09
-1.56095e-09
-3.83266e-09
-6.29211e-10
-1.69706e-08
4.36949e-08
-4.75361e-09
-3.01812e-08
3.07669e-08
-4.88722e-09
-3.74714e-08
1.36092e-08
-2.31376e-09
-4.03016e-08
4.62261e-09
-1.32987e-09
-4.17142e-08
1.93722e-09
-6.28088e-10
-4.2531e-08
1.1697e-09
-4.18087e-10
-4.30312e-08
8.48751e-10
-3.1161e-10
-4.33334e-08
6.24628e-10
-2.41671e-10
-4.34861e-08
4.35083e-10
-1.9107e-10
-4.35053e-08
2.92137e-10
-1.89273e-10
-4.34429e-08
1.77083e-10
-1.76909e-10
-4.33146e-08
8.71777e-11
-1.77798e-10
-4.31287e-08
-5.31086e-12
-1.67604e-10
-4.28973e-08
-8.15184e-11
-1.59979e-10
-4.26226e-08
-1.53391e-10
-1.54741e-10
-4.23163e-08
-2.14226e-10
-1.46364e-10
-4.19899e-08
-2.60453e-10
-1.37793e-10
-4.16533e-08
-2.92988e-10
-1.30189e-10
-4.13213e-08
-3.05778e-10
-1.21838e-10
-4.1012e-08
-2.92916e-10
-1.13431e-10
-4.07481e-08
-2.44065e-10
-1.05998e-10
-4.05693e-08
-1.51199e-10
-8.21521e-11
-4.04867e-08
-3.08317e-11
-5.91212e-11
-4.05724e-08
1.75478e-10
-2.6953e-11
-4.08374e-08
4.58886e-10
-2.78956e-11
-4.13269e-08
8.14359e-10
-1.79164e-11
-4.20561e-08
1.22978e-09
-2.03688e-11
-4.30173e-08
1.68168e-09
-3.58559e-11
-4.41597e-08
2.12031e-09
-7.31871e-11
-4.53757e-08
2.47389e-09
-1.44003e-10
-4.65194e-08
2.572e-09
-1.58578e-10
-4.71666e-08
2.25471e-09
-3.75704e-10
-4.68722e-08
1.378e-09
-6.76072e-10
-4.50306e-08
-4.08402e-10
-1.0595e-09
-4.12142e-08
-2.81718e-09
-1.55433e-09
-3.47834e-08
-6.23191e-09
-2.13352e-09
-2.60565e-08
-9.63679e-09
-2.46754e-09
-1.584e-08
-1.23878e-08
-2.46254e-09
-5.93264e-09
-1.32384e-08
-1.83754e-09
-9.11742e-09
-6.47903e-10
-1.1957e-08
6.05406e-08
-4.88884e-09
-2.44297e-08
4.7668e-08
-4.4285e-09
-3.32931e-08
2.42706e-08
-1.79808e-09
-3.8805e-08
1.14196e-08
-1.28507e-09
-4.19751e-08
5.58962e-09
-4.82399e-10
-4.3933e-08
3.39919e-09
-2.71736e-10
-4.522e-08
2.2832e-09
-1.47522e-10
-4.60764e-08
1.58802e-09
-1.07018e-10
-4.66415e-08
1.091e-09
-9.08828e-11
-4.70018e-08
7.19759e-10
-6.74012e-11
-4.71987e-08
4.28163e-10
-5.42229e-11
-4.72554e-08
2.09992e-10
-6.61759e-11
-4.72242e-08
2.82145e-11
-6.48009e-11
-4.71305e-08
-1.17379e-10
-5.78944e-11
-4.69739e-08
-2.4111e-10
-6.89356e-11
-4.67715e-08
-3.4929e-10
-6.73654e-11
-4.65414e-08
-4.26838e-10
-6.37872e-11
-4.62929e-08
-4.79654e-10
-6.18348e-11
-4.60416e-08
-4.99535e-10
-5.76062e-11
-4.58057e-08
-4.74797e-10
-5.40434e-11
-4.56106e-08
-3.88254e-10
-5.09302e-11
-4.54884e-08
-2.40258e-10
-3.3255e-11
-4.54543e-08
-5.08945e-11
-1.40919e-11
-4.55798e-08
3.04461e-10
-3.49686e-12
-4.58635e-08
7.49087e-10
-6.56998e-12
-4.63358e-08
1.28611e-09
5.0553e-13
-4.7001e-08
1.8931e-09
1.81195e-12
-4.78289e-08
2.51128e-09
-1.76877e-12
-4.87527e-08
3.05959e-09
-1.56041e-11
-4.97037e-08
3.38288e-09
4.19181e-11
-5.04494e-08
3.27155e-09
4.61765e-11
-5.06289e-08
2.59856e-09
-1.6446e-10
-4.9943e-08
9.6664e-10
-2.74632e-10
-4.76366e-08
-2.02537e-09
-6.89487e-10
-4.35275e-08
-5.92523e-09
-1.00109e-09
-3.65569e-08
-1.13389e-08
-1.86364e-09
-2.72312e-08
-1.67578e-08
-2.20472e-09
-1.65007e-08
-2.08409e-08
-2.27749e-09
-6.12614e-09
-2.18884e-08
-1.72457e-09
-1.46835e-08
-5.6012e-10
-7.73834e-09
7.26186e-08
-4.33961e-09
-1.90989e-08
6.23722e-08
-3.34365e-09
-2.7405e-08
3.4568e-08
-1.99141e-09
-3.3742e-08
1.84296e-08
-6.73107e-10
-3.79693e-08
1.00424e-08
-2.25531e-10
-4.05542e-08
6.0187e-09
-3.46497e-11
-4.23157e-08
4.02839e-09
1.62537e-11
-4.35612e-08
2.80054e-09
3.29132e-11
-4.44587e-08
1.95566e-09
3.27424e-11
-4.51042e-08
1.33672e-09
2.84874e-11
-4.55561e-08
8.68965e-10
1.1013e-11
-4.58551e-08
5.04761e-10
4.18399e-12
-4.60519e-08
2.05825e-10
1.91569e-11
-4.61509e-08
-3.90957e-11
2.07122e-11
-4.61579e-08
-2.33655e-10
-5.15594e-13
-4.61046e-08
-3.92705e-10
-9.91846e-12
-4.60186e-08
-5.07863e-10
-5.02102e-12
-4.59048e-08
-5.82138e-10
-1.14096e-11
-4.5773e-08
-6.16047e-10
-1.52465e-11
-4.56374e-08
-5.8735e-10
-2.31831e-11
-4.55192e-08
-4.81307e-10
-2.51972e-11
-4.54323e-08
-2.96272e-10
-3.08916e-11
-4.54453e-08
-5.05123e-11
1.25172e-11
-4.55424e-08
4.088e-10
-7.21042e-12
-4.57419e-08
9.5393e-10
-5.44559e-12
-4.60755e-08
1.6171e-09
2.57134e-12
-4.65415e-08
2.34175e-09
1.72384e-11
-4.71161e-08
3.05224e-09
3.36242e-11
-4.7768e-08
3.61352e-09
9.7888e-11
-4.84447e-08
3.86035e-09
1.99155e-10
-4.88763e-08
3.55468e-09
1.4837e-10
-4.88802e-08
2.44136e-09
1.61079e-10
-4.82408e-08
2.78246e-10
4.88812e-11
-4.60001e-08
-3.80702e-09
-4.59076e-10
-4.23804e-08
-9.24969e-09
-2.95302e-10
-3.58153e-08
-1.6434e-08
-1.47002e-09
-2.68554e-08
-2.39936e-08
-1.72419e-09
-1.6449e-08
-2.9368e-08
-1.87927e-09
-6.1775e-09
-3.06289e-08
-1.53109e-09
-2.03871e-08
-4.73936e-10
-4.66371e-09
8.0565e-08
-3.28275e-09
-1.39651e-08
7.40283e-08
-2.35481e-09
-2.21649e-08
4.39623e-08
-1.19467e-09
-2.80801e-08
2.42676e-08
7.7167e-11
-3.2624e-08
1.44178e-08
1.68452e-10
-3.55751e-08
8.75268e-09
2.17122e-10
-3.75878e-08
5.87337e-09
1.67553e-10
-3.90596e-08
4.1303e-09
1.41962e-10
-4.01688e-08
2.94459e-09
1.20272e-10
-4.1019e-08
2.08313e-09
1.0365e-10
-4.16734e-08
1.4357e-09
8.75978e-11
-4.21736e-08
9.2854e-10
7.64524e-11
-4.25557e-08
5.21252e-10
6.65796e-11
-4.28318e-08
1.9216e-10
4.48511e-11
-4.30223e-08
-7.66701e-11
3.3458e-11
-4.31481e-08
-2.96816e-10
2.98322e-11
-4.32193e-08
-4.70152e-10
3.34463e-11
-4.32392e-08
-5.82304e-10
2.00647e-11
-4.32241e-08
-6.35142e-10
3.90863e-12
-4.31865e-08
-6.13091e-10
-1.19264e-11
-4.31407e-08
-5.12036e-10
-1.5082e-11
-4.31119e-08
-3.15446e-10
-9.67296e-12
-4.31469e-08
-1.23795e-11
-3.15509e-12
-4.32025e-08
4.92871e-10
-2.85658e-11
-4.3294e-08
1.07499e-09
-2.95935e-11
-4.3461e-08
1.7992e-09
-1.52032e-11
-4.37095e-08
2.56581e-09
2.44024e-11
-4.40399e-08
3.29655e-09
8.60121e-11
-4.44611e-08
3.82488e-09
2.09785e-10
-4.48701e-08
3.9869e-09
2.82457e-10
-4.51e-08
3.48751e-09
2.96964e-10
-4.51194e-08
2.053e-09
4.07691e-10
-4.48966e-08
-6.54444e-10
7.09816e-10
-4.32863e-08
-5.52852e-09
1.11219e-10
-4.0017e-08
-1.23725e-08
-1.46582e-10
-3.4539e-08
-2.11097e-08
-8.02382e-10
-2.59214e-08
-3.07768e-08
-1.83446e-09
-1.62342e-08
-3.77379e-08
-1.31727e-09
-6.23707e-09
-3.93463e-08
-1.27975e-09
-2.62254e-08
-3.98755e-10
-2.56053e-09
8.54776e-08
-2.35209e-09
-9.93351e-09
8.29809e-08
-1.57964e-09
-1.79241e-08
5.2063e-08
-1.1012e-10
-2.33115e-08
2.97182e-08
-6.32823e-11
-2.72733e-08
1.80891e-08
2.90478e-10
-3.03948e-08
1.15516e-08
3.22445e-10
-3.25169e-08
7.7307e-09
2.64694e-10
-3.40759e-08
5.47144e-09
2.17754e-10
-3.528e-08
3.96918e-09
1.794e-10
-3.62343e-08
2.88718e-09
1.50185e-10
-3.70033e-08
2.07776e-09
1.26945e-10
-3.76271e-08
1.44275e-09
1.09486e-10
-3.81381e-08
9.36632e-10
9.55625e-11
-3.85516e-08
5.24665e-10
8.09872e-11
-3.8884e-08
1.86504e-10
6.92233e-11
-3.915e-08
-9.20037e-11
6.1079e-11
-3.93558e-08
-3.10346e-10
4.60109e-11
-3.95065e-08
-4.64236e-10
3.25777e-11
-3.96096e-08
-5.49059e-10
1.6943e-11
-3.96705e-08
-5.54784e-10
2.62637e-12
-3.96997e-08
-4.70564e-10
-1.24037e-11
-3.97337e-08
-2.80057e-10
-1.42308e-12
-3.97728e-08
5.19627e-11
-2.52967e-11
-3.98115e-08
5.52918e-10
-2.13963e-11
-3.98037e-08
1.11982e-09
-5.26203e-11
-3.98489e-08
1.86575e-09
-2.14203e-11
-3.99315e-08
2.61981e-09
2.85286e-11
-4.00887e-08
3.34399e-09
1.09667e-10
-4.03081e-08
3.83083e-09
2.13381e-10
-4.05256e-08
3.8856e-09
3.18809e-10
-4.06827e-08
3.24459e-09
3.99883e-10
-4.10268e-08
1.62965e-09
7.67387e-10
-4.07908e-08
-1.7132e-09
8.22755e-10
-3.98419e-08
-7.41575e-09
9.3818e-10
-3.70754e-08
-1.52681e-08
1.29006e-10
-3.26451e-08
-2.56909e-08
1.50892e-10
-2.49165e-08
-3.69523e-08
-1.55304e-09
-1.58921e-08
-4.55195e-08
-1.24284e-09
-6.2415e-09
-4.80656e-08
-9.31401e-10
-3.21204e-08
-3.46524e-10
-1.19465e-09
8.83386e-08
-1.6664e-09
-6.99425e-09
8.9808e-08
-1.02755e-09
-1.40352e-08
5.90559e-08
4.79988e-11
-1.94742e-08
3.4937e-08
2.20138e-10
-2.29588e-08
2.12212e-08
3.52458e-10
-2.56159e-08
1.38404e-08
3.68284e-10
-2.7757e-08
9.53185e-09
3.39883e-10
-2.92933e-08
6.74255e-09
2.65112e-10
-3.04813e-08
4.94098e-09
2.16065e-10
-3.14406e-08
3.66937e-09
1.77057e-10
-3.22403e-08
2.72779e-09
1.49645e-10
-3.29142e-08
1.98902e-09
1.27556e-10
-3.34915e-08
1.40358e-09
1.10323e-10
-3.39857e-08
9.24365e-10
9.45039e-11
-3.44112e-08
5.30685e-10
8.12396e-11
-3.47776e-08
2.05171e-10
6.91528e-11
-3.50897e-08
-5.39621e-11
5.57272e-11
-3.53488e-08
-2.46537e-10
4.1339e-11
-3.55565e-08
-3.67146e-10
2.57247e-11
-3.57154e-08
-4.0577e-10
9.84314e-12
-3.58315e-08
-3.4807e-10
-6.37891e-12
-3.59179e-08
-1.7678e-10
-1.69271e-11
-3.59741e-08
1.41057e-10
-3.30172e-11
-3.60076e-08
6.11795e-10
-2.54056e-11
-3.59855e-08
1.13506e-09
-3.7406e-11
-3.59302e-08
1.85651e-09
-4.60673e-11
-3.59136e-08
2.58193e-09
2.12283e-11
-3.59476e-08
3.26969e-09
1.08262e-10
-3.60318e-08
3.69409e-09
2.20823e-10
-3.61465e-08
3.63938e-09
3.60919e-10
-3.62778e-08
2.90576e-09
4.70009e-10
-3.67356e-08
1.11503e-09
9.7239e-10
-3.64627e-08
-2.76594e-09
7.79753e-10
-3.57959e-08
-9.09468e-09
1.01209e-09
-3.38742e-08
-1.79182e-08
7.28411e-10
-3.02553e-08
-2.97423e-08
4.32486e-10
-2.37876e-08
-4.26686e-08
-7.51446e-10
-1.52921e-08
-5.31633e-08
-8.51791e-10
-6.21421e-09
-5.64912e-08
-6.52354e-10
-3.80341e-08
-3.00512e-10
-2.27677e-10
8.9731e-08
-1.16482e-09
-4.72557e-09
9.48521e-08
-5.46267e-10
-1.08506e-08
6.48379e-08
3.42956e-10
-1.60717e-08
3.93969e-08
7.61148e-10
-1.9657e-08
2.41091e-08
6.97298e-10
-2.18518e-08
1.56602e-08
3.74965e-10
-2.3553e-08
1.08894e-08
3.43493e-10
-2.4999e-08
7.89086e-09
2.97612e-10
-2.6091e-08
5.80114e-09
2.31844e-10
-2.6971e-08
4.36191e-09
1.87369e-10
-2.77239e-08
3.32281e-09
1.5777e-10
-2.83745e-08
2.50684e-09
1.32735e-10
-2.89528e-08
1.86688e-09
1.14963e-10
-2.94692e-08
1.34179e-09
9.89547e-11
-2.99357e-08
9.11544e-10
8.56594e-11
-3.03575e-08
5.54027e-10
7.28423e-11
-3.07364e-08
2.65251e-10
5.96443e-11
-3.10715e-08
4.27452e-11
4.58022e-11
-3.13612e-08
-1.08239e-10
3.0789e-11
-3.16036e-08
-1.78178e-10
1.47257e-11
-3.17971e-08
-1.52185e-10
-2.43181e-12
-3.19424e-08
-1.31881e-11
-1.83028e-11
-3.20283e-08
2.6322e-10
-3.63393e-11
-3.20533e-08
6.81833e-10
-4.50747e-11
-3.20847e-08
1.17196e-09
-5.58855e-12
-3.1983e-08
1.79638e-09
-4.15942e-11
-3.19178e-08
2.49766e-09
1.90528e-11
-3.18651e-08
3.12036e-09
9.65505e-11
-3.18531e-08
3.4739e-09
2.08138e-10
-3.19029e-08
3.32097e-09
3.68131e-10
-3.19519e-08
2.42449e-09
5.30271e-10
-3.21555e-08
5.34528e-10
7.84006e-10
-3.2137e-08
-3.81258e-09
1.02806e-09
-3.17639e-08
-1.06344e-08
1.16663e-09
-3.044e-08
-2.03109e-08
1.06875e-09
-2.77205e-08
-3.32874e-08
8.25534e-10
-2.22965e-08
-4.78533e-08
-2.39286e-10
-1.44508e-08
-6.04181e-08
-5.90926e-10
-6.0179e-09
-6.45089e-08
-4.15245e-10
-4.38299e-08
-2.22075e-10
4.07003e-10
9.01208e-08
-7.96823e-10
-3.08284e-09
9.85484e-08
-2.06471e-10
-8.39194e-09
6.96215e-08
5.25446e-10
-1.32046e-08
4.33181e-08
8.91415e-10
-1.65366e-08
2.68213e-08
6.1966e-10
-1.87502e-08
1.74719e-08
4.01825e-10
-2.01394e-08
1.19965e-08
2.81996e-10
-2.12463e-08
8.74318e-09
2.54517e-10
-2.22188e-08
6.54139e-09
2.32206e-10
-2.29747e-08
4.93491e-09
1.82855e-10
-2.36236e-08
3.81616e-09
1.55478e-10
-2.41918e-08
2.94643e-09
1.28585e-10
-2.47136e-08
2.27649e-09
1.12124e-10
-2.51954e-08
1.72764e-09
9.59153e-11
-2.56492e-08
1.28178e-09
8.35432e-11
-2.60768e-08
9.10262e-10
7.13648e-11
-2.6479e-08
6.07763e-10
5.95729e-11
-2.68523e-08
3.68979e-10
4.70371e-11
-2.71923e-08
1.98199e-10
3.35111e-11
-2.74929e-08
1.03663e-10
1.87197e-11
-2.77469e-08
9.9156e-11
2.70304e-12
-2.79473e-08
2.00539e-10
-1.34474e-11
-2.80799e-08
4.25368e-10
-2.95236e-11
-2.81359e-08
7.82543e-10
-4.47829e-11
-2.81839e-08
1.23164e-09
-1.1741e-11
-2.8115e-08
1.74257e-09
-1.51936e-11
-2.80135e-08
2.38307e-09
1.30948e-11
-2.79042e-08
2.92782e-09
8.31356e-11
-2.78207e-08
3.19955e-09
1.90783e-10
-2.77907e-08
2.93622e-09
3.5474e-10
-2.77792e-08
1.87692e-09
5.36007e-10
-2.7835e-08
-1.38082e-10
7.28331e-10
-2.78788e-08
-4.83692e-09
1.06811e-09
-2.76906e-08
-1.20611e-08
1.23835e-09
-2.68388e-08
-2.24443e-08
1.28164e-09
-2.48206e-08
-3.63853e-08
1.07955e-09
-2.05336e-08
-5.24641e-08
3.23917e-10
-1.35413e-08
-6.70076e-08
-4.02796e-10
-5.76075e-09
-7.20301e-08
-2.59316e-10
-4.94424e-08
-1.48327e-10
7.31584e-10
8.99535e-08
-5.64303e-10
-1.99964e-09
1.01318e-07
-3.88646e-11
-6.6103e-09
7.37225e-08
5.09679e-10
-1.09379e-08
4.69609e-08
6.84708e-10
-1.40063e-08
2.9333e-08
5.56671e-10
-1.6098e-08
1.9005e-08
5.58463e-10
-1.74453e-08
1.29702e-08
3.73599e-10
-1.82674e-08
9.33704e-09
2.28195e-10
-1.89366e-08
7.01696e-09
1.93527e-10
-1.95123e-08
5.34645e-09
1.6411e-10
-2.00284e-08
4.17517e-09
1.5708e-10
-2.04705e-08
3.26875e-09
1.19748e-10
-2.08879e-08
2.58856e-09
1.05325e-10
-2.12861e-08
2.03745e-09
8.83244e-11
-2.16791e-08
1.59696e-09
7.78064e-11
-2.20657e-08
1.23023e-09
6.66078e-11
-2.24462e-08
9.31618e-10
5.65908e-11
-2.28157e-08
6.92635e-10
4.58294e-11
-2.31679e-08
5.15978e-10
3.4385e-11
-2.3494e-08
4.07873e-10
2.17699e-11
-2.37831e-08
3.80125e-10
8.17127e-12
-2.40238e-08
4.46767e-10
-5.58539e-12
-2.42024e-08
6.21987e-10
-1.80483e-11
-2.4309e-08
9.15482e-10
-2.64475e-11
-2.43588e-08
1.30246e-09
-2.10144e-11
-2.43408e-08
1.73519e-09
-1.06597e-11
-2.42349e-08
2.26254e-09
1.45023e-11
-2.40956e-08
2.70968e-09
7.87822e-11
-2.39571e-08
2.88097e-09
1.80013e-10
-2.38519e-08
2.50256e-09
3.28366e-10
-2.38297e-08
1.33867e-09
5.15987e-10
-2.37482e-08
-9.01038e-10
6.81425e-10
-2.38162e-08
-5.82487e-09
1.05594e-09
-2.37562e-08
-1.33757e-08
1.25455e-09
-2.32473e-08
-2.43525e-08
1.39921e-09
-2.18306e-08
-3.90815e-08
1.2795e-09
-1.86007e-08
-5.64933e-08
7.99289e-10
-1.24696e-08
-7.28337e-08
-3.05114e-10
-5.41486e-09
-7.89001e-08
-1.84676e-10
-5.47969e-08
-6.03638e-11
9.32207e-10
8.94391e-08
-4.17852e-10
-1.20159e-09
1.0337e-07
8.26945e-11
-5.1827e-09
7.71766e-08
5.26889e-10
-9.10932e-09
5.01815e-08
7.06031e-10
-1.20207e-08
3.15712e-08
6.73164e-10
-1.38902e-08
2.04137e-08
4.60686e-10
-1.50804e-08
1.38473e-08
3.13028e-10
-1.58353e-08
9.829e-09
2.62891e-10
-1.62751e-08
7.29801e-09
1.58751e-10
-1.66413e-08
5.55866e-09
1.53942e-10
-1.69506e-08
4.37201e-09
1.12391e-10
-1.7236e-08
3.45741e-09
9.66634e-11
-1.75312e-08
2.78586e-09
9.79185e-11
-1.78144e-08
2.24325e-09
7.73883e-11
-1.81098e-08
1.82295e-09
6.93736e-11
-1.8416e-08
1.47735e-09
5.90426e-11
-1.87346e-08
1.199e-09
5.12097e-11
-1.90601e-08
9.75742e-10
4.23742e-11
-1.93856e-08
8.08088e-10
3.32817e-11
-1.97008e-08
6.9996e-10
2.31489e-11
-1.99937e-08
6.60693e-10
1.22377e-11
-2.025e-08
7.01888e-10
1.12913e-12
-2.04543e-08
8.35126e-10
-8.84965e-12
-2.05928e-08
1.06845e-09
-1.45527e-11
-2.0663e-08
1.38682e-09
-1.42187e-11
-2.06745e-08
1.74832e-09
-1.61348e-12
-2.05828e-08
2.1538e-09
1.6935e-11
-2.04373e-08
2.48873e-09
7.53699e-11
-2.02656e-08
2.54162e-09
1.67623e-10
-2.00996e-08
2.05125e-09
2.85307e-10
-2.01381e-08
8.20515e-10
5.56598e-10
-1.99436e-08
-1.68523e-09
5.89581e-10
-2.00199e-08
-6.73386e-09
9.85289e-10
-2.00739e-08
-1.45075e-08
1.18569e-09
-1.98172e-08
-2.59312e-08
1.32198e-09
-1.88593e-08
-4.13784e-08
1.33901e-09
-1.64734e-08
-6.0036e-08
1.15675e-09
-1.13327e-08
-7.7926e-08
-4.83704e-11
-5.02895e-09
-8.5105e-08
-9.89233e-11
-5.98115e-08
-1.43465e-11
1.00679e-09
8.87051e-08
-2.72805e-10
-6.93379e-10
1.04924e-07
1.45351e-10
-4.16313e-09
8.01778e-08
4.68539e-10
-7.74187e-09
5.31548e-08
6.0537e-10
-1.04728e-08
3.37818e-08
5.2026e-10
-1.22e-08
2.17418e-08
3.99075e-10
-1.32357e-08
1.45487e-08
3.34202e-10
-1.38179e-08
1.01721e-08
2.39051e-10
-1.41383e-08
7.43096e-09
1.8744e-10
-1.43218e-08
5.61231e-09
1.29789e-10
-1.44237e-08
4.38352e-09
9.03979e-11
-1.45373e-08
3.48293e-09
8.80392e-11
-1.46645e-08
2.8423e-09
7.06948e-11
-1.4807e-08
2.32869e-09
5.70158e-11
-1.49858e-08
1.942e-09
5.97782e-11
-1.51854e-08
1.62767e-09
4.92038e-11
-1.54113e-08
1.38107e-09
4.38086e-11
-1.56592e-08
1.18693e-09
3.67315e-11
-1.59228e-08
1.04155e-09
3.00437e-11
-1.6192e-08
9.4673e-10
2.24052e-11
-1.64545e-08
9.08931e-10
1.42387e-11
-1.66955e-08
9.36929e-10
5.95054e-12
-1.68984e-08
1.03945e-09
-1.44922e-12
-1.70474e-08
1.22233e-09
-4.93391e-12
-1.71299e-08
1.47569e-09
-6.41527e-12
-1.71511e-08
1.76058e-09
8.8514e-12
-1.708e-08
2.06206e-09
2.06222e-11
-1.69432e-08
2.27705e-09
7.48059e-11
-1.67671e-08
2.20386e-09
1.61642e-10
-1.65843e-08
1.61282e-09
2.55543e-10
-1.65816e-08
3.10432e-10
5.07318e-10
-1.6388e-08
-2.44996e-09
5.7109e-10
-1.64782e-08
-7.55683e-09
9.13111e-10
-1.66328e-08
-1.54977e-08
1.14483e-09
-1.66391e-08
-2.72664e-08
1.34147e-09
-1.60538e-08
-4.32746e-08
1.31095e-09
-1.4215e-08
-6.29112e-08
1.0364e-09
-1.01271e-08
-8.2266e-08
2.52125e-10
-4.6108e-09
-9.06274e-08
6.19856e-12
-6.44299e-08
7.61034e-12
9.93036e-10
8.78835e-08
-1.71516e-10
-3.47481e-10
1.06093e-07
1.71287e-10
-3.35668e-09
8.27681e-08
4.18816e-10
-6.59317e-09
5.58477e-08
5.43547e-10
-9.13202e-09
3.58295e-08
4.91035e-10
-1.0801e-08
2.30029e-08
4.07836e-10
-1.17365e-08
1.51879e-08
2.96168e-10
-1.2194e-08
1.04188e-08
2.10707e-10
-1.23702e-08
7.45197e-09
1.55165e-10
-1.24052e-08
5.53018e-09
1.1708e-10
-1.23714e-08
4.257e-09
9.27579e-11
-1.23298e-08
3.36756e-09
7.37204e-11
-1.22849e-08
2.74538e-09
5.20311e-11
-1.22828e-08
2.27512e-09
5.14041e-11
-1.23206e-08
1.93756e-09
4.22502e-11
-1.23952e-08
1.66714e-09
3.51453e-11
-1.25105e-08
1.46075e-09
3.55308e-11
-1.26587e-08
1.30568e-09
2.94117e-11
-1.28339e-08
1.1917e-09
2.50619e-11
-1.30278e-08
1.12105e-09
1.95533e-11
-1.32293e-08
1.09652e-09
1.38802e-11
-1.34245e-08
1.12378e-09
8.26727e-12
-1.35967e-08
1.20833e-09
3.35638e-12
-1.37294e-08
1.35297e-09
1.96567e-12
-1.38039e-08
1.54996e-09
1.46708e-13
-1.38228e-08
1.76462e-09
1.48314e-11
-1.37615e-08
1.97374e-09
2.69695e-11
-1.36347e-08
2.07486e-09
7.53345e-11
-1.34701e-08
1.88626e-09
1.5298e-10
-1.33019e-08
1.19774e-09
2.46874e-10
-1.31728e-08
-2.04867e-10
3.86126e-10
-1.3064e-08
-3.13722e-09
5.78363e-10
-1.31757e-08
-8.27546e-09
8.30367e-10
-1.34035e-08
-1.63204e-08
1.05041e-09
-1.35725e-08
-2.82733e-08
1.17581e-09
-1.33319e-08
-4.48038e-08
1.28851e-09
-1.20852e-08
-6.52757e-08
1.11782e-09
-8.89677e-09
-8.58752e-08
4.20754e-10
-4.1579e-09
-9.54513e-08
8.50608e-11
-6.8609e-08
2.13081e-11
9.47708e-10
8.70401e-08
-1.04313e-10
-1.13345e-10
1.06988e-07
1.66607e-10
-2.73326e-09
8.50272e-08
3.60785e-10
-5.66328e-09
5.83071e-08
4.70566e-10
-8.02119e-09
3.77528e-08
4.34573e-10
-9.58581e-09
2.42076e-08
3.59863e-10
-1.04671e-08
1.57935e-08
2.75745e-10
-1.08481e-08
1.06097e-08
1.90019e-10
-1.09287e-08
7.39582e-09
1.36721e-10
-1.08477e-08
5.35001e-09
9.91816e-11
-1.06868e-08
4.02196e-09
7.40398e-11
-1.05081e-08
3.13084e-09
5.80108e-11
-1.03357e-08
2.52794e-09
4.50519e-11
-1.02024e-08
2.09948e-09
4.23942e-11
-1.00991e-08
1.80389e-09
3.03364e-11
-1.00454e-08
1.58475e-09
2.86417e-11
-1.00374e-08
1.43032e-09
2.24742e-11
-1.00724e-08
1.32016e-09
2.04942e-11
-1.01441e-08
1.24462e-09
1.87253e-11
-1.02437e-08
1.20552e-09
1.51081e-11
-1.03616e-08
1.2029e-09
1.14827e-11
-1.04856e-08
1.23948e-09
8.23872e-12
-1.06007e-08
1.3178e-09
5.62946e-12
-1.06911e-08
1.43691e-09
6.35465e-12
-1.07343e-08
1.59035e-09
2.86032e-12
-1.0734e-08
1.74583e-09
1.84201e-11
-1.06665e-08
1.87485e-09
3.13527e-11
-1.05391e-08
1.87421e-09
7.31937e-11
-1.03758e-08
1.58378e-09
1.39113e-10
-1.02145e-08
8.06449e-10
2.29992e-10
-1.00461e-08
-7.05635e-10
3.32311e-10
-9.97318e-09
-3.74068e-09
5.30474e-10
-1.01038e-08
-8.89135e-09
7.46514e-10
-1.03977e-08
-1.69864e-08
9.59829e-10
-1.07315e-08
-2.90627e-08
1.12327e-09
-1.07758e-08
-4.58982e-08
1.13864e-09
-1.00554e-08
-6.70295e-08
1.03346e-09
-7.68195e-09
-8.87853e-08
5.36696e-10
-3.6957e-09
-9.95685e-08
1.30971e-10
-7.23322e-08
2.74795e-11
9.02167e-10
8.62013e-08
-6.34569e-11
7.08184e-11
1.07661e-07
1.58545e-10
-2.21038e-09
8.69962e-08
3.1215e-10
-4.8609e-09
6.05453e-08
4.1221e-10
-7.05588e-09
3.95568e-08
3.90933e-10
-8.53065e-09
2.53479e-08
3.34432e-10
-9.34087e-09
1.63731e-08
2.30573e-10
-9.68083e-09
1.07951e-08
1.54591e-10
-9.7044e-09
7.30185e-09
1.17514e-10
-9.54622e-09
5.108e-09
8.38205e-11
-9.29458e-09
3.70976e-09
6.05461e-11
-9.01242e-09
2.8039e-09
4.47617e-11
-8.73209e-09
2.21429e-09
3.33157e-11
-8.48216e-09
1.82166e-09
2.78963e-11
-8.26678e-09
1.56699e-09
2.15067e-11
-8.09844e-09
1.39629e-09
2.01167e-11
-7.97219e-09
1.29041e-09
1.36384e-11
-7.89161e-09
1.22465e-09
1.49197e-11
-7.85282e-09
1.19319e-09
1.26105e-11
-7.84844e-09
1.19238e-09
8.7327e-12
-7.86984e-09
1.21742e-09
6.85327e-12
-7.90617e-09
1.26968e-09
6.11081e-12
-7.94453e-09
1.3503e-09
5.82275e-12
-7.96978e-09
1.45622e-09
5.91842e-12
-7.96372e-09
1.57934e-09
4.91371e-12
-7.92431e-09
1.6881e-09
1.82839e-11
-7.83018e-09
1.74737e-09
3.33189e-11
-7.68593e-09
1.66123e-09
6.86763e-11
-7.50991e-09
1.28636e-09
1.21355e-10
-7.36196e-09
4.38078e-10
2.20379e-10
-7.17037e-09
-1.18221e-09
2.8495e-10
-7.12293e-09
-4.26069e-09
4.72523e-10
-7.28265e-09
-9.39311e-09
6.61446e-10
-7.65671e-09
-1.74731e-08
8.60769e-10
-8.15925e-09
-2.95789e-08
1.0187e-09
-8.51173e-09
-4.65753e-08
1.02961e-09
-8.21865e-09
-6.82929e-08
9.70316e-10
-6.52186e-09
-9.10878e-08
6.0572e-10
-3.23929e-09
-1.02995e-07
1.44397e-10
-7.55936e-08
2.21554e-11
8.73518e-10
8.53676e-08
-3.98167e-11
2.45316e-10
1.08142e-07
1.46463e-10
-1.73795e-09
8.87058e-08
2.73613e-10
-4.13958e-09
6.25802e-08
3.66738e-10
-6.1918e-09
4.12552e-08
3.53738e-10
-7.60335e-09
2.64714e-08
2.8803e-10
-8.36833e-09
1.69218e-08
2.16225e-10
-8.66369e-09
1.09189e-08
1.7146e-10
-8.64207e-09
7.1662e-09
1.14018e-10
-8.42762e-09
4.81614e-09
7.74101e-11
-8.11077e-09
3.34101e-09
5.19054e-11
-7.75383e-09
2.41156e-09
3.54044e-11
-7.39308e-09
1.82927e-09
2.42733e-11
-7.05475e-09
1.46546e-09
1.7871e-11
-6.74772e-09
1.24734e-09
1.26209e-11
-6.48213e-09
1.12041e-09
1.02775e-11
-6.2572e-09
1.05824e-09
7.23947e-12
-6.0756e-09
1.03639e-09
6.64168e-12
-5.9342e-09
1.04633e-09
5.45101e-12
-5.82709e-09
1.08139e-09
3.87111e-12
-5.74867e-09
1.13581e-09
3.17026e-12
-5.69016e-09
1.20844e-09
2.69947e-12
-5.64039e-09
1.29781e-09
2.69783e-12
-5.58624e-09
1.39887e-09
3.16693e-12
-5.51511e-09
1.50018e-09
7.9971e-12
-5.41733e-09
1.57392e-09
1.63604e-11
-5.27995e-09
1.57828e-09
3.16789e-11
-5.10653e-09
1.42518e-09
6.25826e-11
-4.91222e-09
9.87532e-10
1.04489e-10
-4.74138e-09
7.93419e-11
1.87863e-10
-4.54812e-09
-1.62962e-09
2.54109e-10
-4.50354e-09
-4.71301e-09
4.07716e-10
-4.68368e-09
-9.78623e-09
5.73242e-10
-5.11645e-09
-1.78e-08
7.59685e-10
-5.71509e-09
-2.98872e-08
9.06992e-10
-6.29024e-09
-4.69645e-08
9.64363e-10
-6.41049e-09
-6.90547e-08
8.82061e-10
-5.38537e-09
-9.26843e-08
5.71414e-10
-2.78307e-09
-1.05741e-07
1.43032e-10
-7.83886e-08
1.19271e-11
8.80139e-10
8.45129e-08
-2.55056e-11
4.55273e-10
1.08429e-07
1.37778e-10
-1.24563e-09
9.0152e-08
2.54707e-10
-3.40339e-09
6.43871e-08
3.5077e-10
-5.30424e-09
4.28029e-08
3.53099e-10
-6.64025e-09
2.75028e-08
3.04601e-10
-7.39572e-09
1.74349e-08
2.42386e-10
-7.67776e-09
1.10286e-08
1.72321e-10
-7.63655e-09
7.00947e-09
1.155e-10
-7.39571e-09
4.49971e-09
7.5586e-11
-7.04398e-09
2.94135e-09
4.79402e-11
-6.64322e-09
1.98094e-09
2.98642e-11
-6.23141e-09
1.39946e-09
1.80121e-11
-5.83376e-09
1.057e-09
1.08039e-11
-5.46189e-09
8.69567e-10
5.90781e-12
-5.1245e-09
7.79747e-10
3.26663e-12
-4.82278e-09
7.554e-10
1.11539e-12
-4.55889e-09
7.72127e-10
3.65681e-13
-4.33031e-09
8.18098e-10
-3.58392e-13
-4.1328e-09
8.84848e-10
-9.82162e-13
-3.96206e-09
9.66178e-10
-1.12854e-12
-3.81154e-09
1.05884e-09
-9.41164e-13
-3.67251e-09
1.15896e-09
-1.94478e-13
-3.53458e-09
1.25949e-09
1.43281e-12
-3.38678e-09
1.34695e-09
5.40518e-12
-3.22084e-09
1.39454e-09
1.3404e-11
-3.02872e-09
1.3584e-09
2.77207e-11
-2.81451e-09
1.15714e-09
5.38019e-11
-2.59465e-09
6.70726e-10
9.69107e-11
-2.37877e-09
-2.89093e-10
1.52522e-10
-2.20489e-09
-2.04344e-09
2.39914e-10
-2.19568e-09
-5.08618e-09
3.63945e-10
-2.39396e-09
-1.006e-08
4.71992e-10
-2.88598e-09
-1.79371e-08
6.29051e-10
-3.69786e-09
-2.98828e-08
8.07401e-10
-4.49425e-09
-4.69975e-08
8.29315e-10
-4.8943e-09
-6.93201e-08
6.65496e-10
-4.38283e-09
-9.3741e-08
5.45298e-10
-2.3927e-09
-1.07995e-07
2.6463e-10
-8.08036e-08
2.23778e-11
9.40082e-10
8.35921e-08
-1.93037e-11
7.37605e-10
1.08504e-07
1.27789e-10
-6.95742e-10
9.13314e-08
2.53889e-10
-2.62168e-09
6.59568e-08
3.56251e-10
-4.37829e-09
4.41896e-08
3.69869e-10
-5.64372e-09
2.84421e-08
3.26038e-10
-6.37394e-09
1.79072e-08
2.57876e-10
-6.65659e-09
1.11252e-08
1.86088e-10
-6.61714e-09
6.84462e-09
1.25402e-10
-6.37332e-09
4.17513e-09
8.07518e-11
-6.01231e-09
2.53091e-09
4.94355e-11
-5.59555e-09
1.53547e-09
2.87201e-11
-5.16142e-09
9.50068e-10
1.52671e-11
-4.73404e-09
6.22744e-10
6.89508e-12
-4.32587e-09
4.59815e-10
1.58844e-12
-3.94454e-09
3.99905e-10
-1.48116e-12
-3.59212e-09
4.0644e-10
-3.46398e-12
-3.26984e-09
4.54222e-10
-4.37626e-12
-2.97581e-09
5.28966e-10
-4.90857e-12
-2.70687e-09
6.21035e-10
-5.13867e-12
-2.45949e-09
7.23788e-10
-5.00226e-12
-2.22859e-09
8.32452e-10
-4.52714e-12
-2.00749e-09
9.41369e-10
-3.53084e-12
-1.78874e-09
1.04238e-09
-1.66469e-12
-1.56477e-09
1.12107e-09
1.88712e-12
-1.32984e-09
1.15086e-09
8.73141e-12
-1.08038e-09
1.08807e-09
2.08506e-11
-8.21821e-10
8.58219e-10
4.03365e-11
-5.70533e-10
3.47288e-10
7.21238e-11
-3.39861e-10
-6.3062e-10
1.10829e-10
-1.79263e-10
-2.38362e-09
1.79563e-10
-1.69589e-10
-5.3769e-09
2.81026e-10
-4.00104e-10
-1.02688e-08
4.39346e-10
-9.25509e-10
-1.80005e-08
5.88872e-10
-1.75367e-09
-2.97569e-08
7.02282e-10
-2.79322e-09
-4.67378e-08
7.79899e-10
-3.52571e-09
-6.92659e-08
6.78313e-10
-3.41213e-09
-9.42812e-08
4.26588e-10
-1.9816e-09
-1.09549e-07
1.22946e-10
-8.27675e-08
-1.76447e-11
1.02837e-09
8.25753e-08
-1.16444e-11
1.07674e-09
1.08334e-07
1.21606e-10
-6.49949e-11
9.22048e-08
2.68208e-10
-1.75395e-09
6.72632e-08
3.82475e-10
-3.36333e-09
4.53905e-08
4.08486e-10
-4.55855e-09
2.92706e-08
3.6677e-10
-5.26723e-09
1.8323e-08
2.92885e-10
-5.55202e-09
1.11967e-08
2.13313e-10
-5.52335e-09
6.67119e-09
1.44762e-10
-5.29144e-09
3.85014e-09
9.30899e-11
-4.94069e-09
2.12377e-09
5.64014e-11
-4.53136e-09
1.09422e-09
3.19316e-11
-4.10085e-09
5.03494e-10
1.60867e-11
-3.67155e-09
1.87426e-10
6.02681e-12
-3.25528e-09
4.38145e-11
-2.59747e-13
-2.85842e-09
7.15965e-12
-4.11089e-12
-2.48303e-09
3.74115e-11
-6.35607e-12
-2.12947e-09
1.08087e-10
-7.42801e-12
-1.79568e-09
2.03114e-10
-7.94395e-12
-1.47882e-09
3.12228e-10
-8.05224e-12
-1.17565e-09
4.28462e-10
-7.86131e-12
-8.82228e-10
5.46175e-10
-7.15066e-12
-5.93689e-10
6.58543e-10
-5.7268e-12
-3.05113e-10
7.56984e-10
-3.19293e-12
-1.20357e-11
8.27699e-10
2.80571e-13
2.89443e-10
8.43913e-10
5.44471e-12
6.00194e-10
7.62376e-10
1.49155e-11
9.14519e-10
5.13152e-10
3.07171e-11
1.2204e-09
-1.5716e-11
5.70964e-11
1.49358e-09
-1.00198e-09
9.81676e-11
1.68239e-09
-2.73147e-09
1.59025e-10
1.7064e-09
-5.64667e-09
2.4575e-10
1.47241e-09
-1.03945e-08
3.59639e-10
8.9509e-10
-1.7906e-08
4.82733e-10
-4.81748e-11
-2.94063e-08
5.92747e-10
-1.23479e-09
-4.62003e-08
6.49171e-10
-2.32221e-09
-6.87709e-08
5.92417e-10
-2.68172e-09
-9.43369e-08
4.15323e-10
-1.68467e-09
-1.1071e-07
1.64558e-10
-8.4438e-08
-1.4108e-11
1.1899e-09
8.13815e-08
3.83516e-12
1.5448e-09
1.0786e-07
1.18793e-10
6.928e-10
9.27713e-08
2.85544e-10
-7.60016e-10
6.8288e-08
4.27932e-10
-2.22067e-09
4.63838e-08
4.67296e-10
-3.34174e-09
2.99659e-08
4.25694e-10
-4.02595e-09
1.86631e-08
3.44051e-10
-4.31319e-09
1.12307e-08
2.53226e-10
-4.29939e-09
6.48436e-09
1.73031e-10
-4.08879e-09
3.52726e-09
1.12296e-10
-3.76236e-09
1.72886e-09
6.85047e-11
-3.37892e-09
6.71664e-10
3.914e-11
-2.97355e-09
7.80261e-11
2.01144e-11
-2.56626e-09
-2.2769e-10
7.8444e-12
-2.1675e-09
-3.55412e-10
4.78164e-13
-1.7829e-09
-3.73533e-10
-3.90175e-12
-1.41307e-09
-3.25528e-10
-6.87937e-12
-1.05652e-09
-2.40019e-10
-8.44727e-12
-7.10671e-10
-1.33486e-10
-9.24711e-12
-3.72535e-10
-1.61964e-11
-9.71399e-12
-3.95868e-11
1.04796e-10
-9.2869e-12
2.91387e-10
2.23849e-10
-8.65483e-12
6.23457e-10
3.34715e-10
-8.25227e-12
9.60599e-10
4.27695e-10
-7.86624e-12
1.30681e-09
4.86215e-10
-4.74337e-12
1.66416e-09
4.84849e-10
1.6925e-12
2.0313e-09
3.8445e-10
1.07629e-11
2.40095e-09
1.18523e-10
2.4964e-11
2.7577e-09
-4.18178e-10
4.56883e-11
3.07109e-09
-1.39399e-09
7.85994e-11
3.28859e-09
-3.07787e-09
1.28884e-10
3.32878e-09
-5.88728e-09
2.00402e-10
3.0936e-09
-1.04535e-08
2.94211e-10
2.47982e-09
-1.76961e-08