/*--------------------------------*- C++ -*----------------------------------*\
  =========                 |
  \\      /  F ield         | OpenFOAM: The Open Source CFD Toolbox
   \\    /   O peration     | Website:  https://openfoam.org
    \\  /    A nd           | Version:  12
     \\/     M anipulation  |
\*---------------------------------------------------------------------------*/
FoamFile
{
    format      ascii;
    class       volScalarField;
    location    "400";
    object      rho;
}
// * * * * * * * * * * * * * * * * * * * * * * * * * * * * * * * * * * * * * //

dimensions      [1 -3 0 0 0 0 0];

internalField   nonuniform List<scalar> 
8000
(
1.14743
1.15667
1.16221
1.16503
1.16657
1.16757
1.16834
1.16899
1.16957
1.1701
1.17058
1.17103
1.17144
1.17183
1.1722
1.17255
1.17288
1.17319
1.17349
1.17378
1.17406
1.17434
1.1746
1.17486
1.17511
1.17536
1.17561
1.17586
1.17611
1.17637
1.17664
1.17692
1.17722
1.17754
1.1779
1.17829
1.17872
1.17921
1.17974
1.18032
1.14742
1.15671
1.16236
1.16519
1.16667
1.16762
1.16836
1.16899
1.16955
1.17006
1.17053
1.17096
1.17137
1.17175
1.17211
1.17245
1.17278
1.17309
1.17339
1.17368
1.17395
1.17422
1.17448
1.17473
1.17498
1.17522
1.17546
1.1757
1.17594
1.17618
1.17642
1.17668
1.17696
1.17726
1.1776
1.178
1.17846
1.179
1.17961
1.18028
1.14728
1.15647
1.16217
1.16507
1.16656
1.16749
1.1682
1.1688
1.16933
1.16982
1.17027
1.17069
1.17108
1.17145
1.17181
1.17214
1.17246
1.17277
1.17307
1.17335
1.17362
1.17389
1.17414
1.17438
1.17462
1.17484
1.17506
1.17527
1.17547
1.17567
1.17588
1.17609
1.17633
1.1766
1.17694
1.17737
1.1779
1.17856
1.17933
1.18019
1.14704
1.15596
1.16168
1.16465
1.16618
1.1671
1.16778
1.16835
1.16885
1.16931
1.16974
1.17014
1.17053
1.17089
1.17124
1.17157
1.17189
1.17219
1.17249
1.17277
1.17304
1.1733
1.17355
1.17378
1.174
1.17421
1.1744
1.17457
1.17474
1.17489
1.17504
1.17521
1.1754
1.17566
1.17601
1.17649
1.17714
1.17797
1.17896
1.18006
1.14676
1.15532
1.16097
1.16401
1.16558
1.16649
1.16714
1.16767
1.16814
1.16857
1.16898
1.16937
1.16974
1.17009
1.17043
1.17076
1.17108
1.17139
1.17168
1.17197
1.17224
1.17249
1.17274
1.17296
1.17317
1.17336
1.17352
1.17367
1.17379
1.1739
1.17401
1.17414
1.17431
1.17456
1.17494
1.1755
1.17629
1.17732
1.17855
1.17993
1.14646
1.15461
1.16016
1.16324
1.16484
1.16574
1.16636
1.16685
1.16728
1.16768
1.16806
1.16843
1.16878
1.16913
1.16946
1.16979
1.1701
1.17041
1.1707
1.17099
1.17126
1.17151
1.17176
1.17198
1.17218
1.17235
1.1725
1.17262
1.17272
1.1728
1.17289
1.17299
1.17316
1.17342
1.17385
1.1745
1.17543
1.17666
1.17814
1.17979
1.14617
1.15389
1.1593
1.16239
1.16402
1.16492
1.16551
1.16596
1.16636
1.16672
1.16707
1.16741
1.16774
1.16807
1.16839
1.16871
1.16901
1.16932
1.16961
1.16989
1.17016
1.17042
1.17066
1.17088
1.17108
1.17125
1.17139
1.1715
1.17159
1.17166
1.17173
1.17184
1.17201
1.1723
1.17279
1.17354
1.17461
1.17603
1.17774
1.17966
1.14589
1.15319
1.15842
1.16151
1.16317
1.16409
1.16465
1.16507
1.16543
1.16575
1.16607
1.16638
1.16668
1.16699
1.16729
1.16759
1.16789
1.16818
1.16847
1.16875
1.16902
1.16928
1.16952
1.16974
1.16994
1.17011
1.17025
1.17036
1.17044
1.17052
1.1706
1.17071
1.1709
1.17123
1.17178
1.17262
1.17383
1.17542
1.17736
1.17953
1.14562
1.15252
1.15757
1.16065
1.16234
1.16327
1.16382
1.16422
1.16454
1.16483
1.16511
1.16539
1.16566
1.16594
1.16622
1.1665
1.16678
1.16706
1.16733
1.1676
1.16787
1.16812
1.16836
1.16858
1.16878
1.16896
1.16911
1.16923
1.16932
1.16941
1.1695
1.16963
1.16985
1.17022
1.17083
1.17176
1.17309
1.17484
1.177
1.1794
1.14539
1.15189
1.15677
1.15982
1.16154
1.16249
1.16305
1.16343
1.16373
1.16399
1.16424
1.16448
1.16472
1.16497
1.16522
1.16548
1.16573
1.16599
1.16625
1.16651
1.16676
1.16701
1.16724
1.16746
1.16766
1.16784
1.168
1.16813
1.16824
1.16834
1.16846
1.16861
1.16886
1.16927
1.16994
1.17095
1.17239
1.1743
1.17665
1.17928
1.14517
1.15132
1.15602
1.15905
1.1608
1.16178
1.16235
1.16273
1.16301
1.16325
1.16346
1.16368
1.16389
1.16411
1.16433
1.16455
1.16478
1.16502
1.16525
1.16549
1.16573
1.16596
1.16619
1.1664
1.1666
1.16678
1.16695
1.16709
1.16722
1.16734
1.16747
1.16766
1.16794
1.16839
1.16911
1.17019
1.17173
1.17379
1.17632
1.17917
1.14498
1.1508
1.15534
1.15833
1.16011
1.16113
1.16173
1.16212
1.16239
1.16261
1.1628
1.16299
1.16317
1.16336
1.16355
1.16374
1.16395
1.16415
1.16436
1.16458
1.1648
1.16501
1.16522
1.16543
1.16562
1.1658
1.16597
1.16612
1.16626
1.1664
1.16656
1.16677
1.16708
1.16757
1.16834
1.16949
1.17112
1.17331
1.17602
1.17906
1.14481
1.15034
1.15472
1.15768
1.1595
1.16056
1.16119
1.16159
1.16186
1.16207
1.16225
1.16241
1.16257
1.16273
1.16289
1.16306
1.16323
1.16341
1.16359
1.16378
1.16398
1.16417
1.16436
1.16455
1.16474
1.16491
1.16508
1.16523
1.16538
1.16554
1.16572
1.16596
1.1663
1.16683
1.16764
1.16884
1.17056
1.17286
1.17573
1.17896
1.14466
1.14992
1.15416
1.1571
1.15894
1.16005
1.16072
1.16114
1.16142
1.16163
1.16179
1.16194
1.16208
1.16221
1.16235
1.16249
1.16264
1.16279
1.16295
1.16311
1.16328
1.16345
1.16362
1.16379
1.16396
1.16412
1.16429
1.16444
1.1646
1.16477
1.16496
1.16522
1.16559
1.16615
1.167
1.16825
1.17004
1.17245
1.17546
1.17887
1.14453
1.14955
1.15366
1.15657
1.15844
1.1596
1.16031
1.16076
1.16105
1.16126
1.16143
1.16156
1.16168
1.1618
1.16192
1.16203
1.16216
1.16228
1.16241
1.16255
1.16269
1.16284
1.16299
1.16314
1.16329
1.16344
1.16359
1.16375
1.16391
1.16408
1.16429
1.16456
1.16496
1.16554
1.16642
1.16771
1.16956
1.17206
1.1752
1.17878
1.14441
1.14923
1.15321
1.15609
1.158
1.1592
1.15995
1.16043
1.16074
1.16096
1.16112
1.16125
1.16137
1.16147
1.16157
1.16167
1.16177
1.16188
1.16198
1.1621
1.16222
1.16234
1.16247
1.1626
1.16273
1.16287
1.16301
1.16315
1.16331
1.16349
1.1637
1.16399
1.16439
1.165
1.16589
1.16722
1.16912
1.1717
1.17496
1.17869
1.1443
1.14894
1.15281
1.15566
1.15759
1.15883
1.15963
1.16014
1.16047
1.1607
1.16087
1.161
1.16111
1.1612
1.16129
1.16138
1.16146
1.16155
1.16164
1.16174
1.16183
1.16194
1.16204
1.16215
1.16227
1.16239
1.16252
1.16265
1.1628
1.16298
1.1632
1.16349
1.1639
1.16451
1.16543
1.16678
1.16871
1.17136
1.17473
1.17861
1.14421
1.14867
1.15244
1.15527
1.15721
1.1585
1.15933
1.15987
1.16023
1.16047
1.16065
1.16078
1.16089
1.16098
1.16106
1.16114
1.16122
1.16129
1.16137
1.16145
1.16153
1.16161
1.1617
1.1618
1.1619
1.162
1.16212
1.16224
1.16238
1.16255
1.16277
1.16306
1.16347
1.16409
1.16501
1.16637
1.16833
1.17104
1.17451
1.17853
1.14413
1.14843
1.15211
1.1549
1.15686
1.15817
1.15904
1.15961
1.15998
1.16025
1.16043
1.16057
1.16068
1.16078
1.16086
1.16093
1.161
1.16107
1.16114
1.16121
1.16128
1.16136
1.16143
1.16151
1.1616
1.16169
1.16179
1.1619
1.16204
1.1622
1.16241
1.16269
1.1631
1.16371
1.16462
1.16599
1.16797
1.17073
1.17429
1.17846
1.14405
1.14821
1.15179
1.15455
1.15651
1.15785
1.15874
1.15934
1.15974
1.16001
1.16021
1.16036
1.16047
1.16057
1.16066
1.16073
1.16081
1.16087
1.16094
1.161
1.16107
1.16114
1.16121
1.16128
1.16135
1.16143
1.16153
1.16163
1.16175
1.1619
1.1621
1.16238
1.16278
1.16338
1.16428
1.16563
1.16762
1.17042
1.17408
1.17838
1.14397
1.14799
1.15148
1.1542
1.15617
1.15752
1.15844
1.15905
1.15946
1.15975
1.15996
1.16012
1.16024
1.16035
1.16044
1.16052
1.1606
1.16067
1.16074
1.16081
1.16087
1.16094
1.16101
1.16107
1.16114
1.16122
1.1613
1.1614
1.16151
1.16165
1.16184
1.16211
1.16249
1.16307
1.16395
1.16529
1.16727
1.17011
1.17386
1.1783
1.1439
1.14778
1.15118
1.15385
1.15581
1.15717
1.1581
1.15872
1.15915
1.15945
1.15966
1.15983
1.15997
1.16008
1.16019
1.16028
1.16037
1.16045
1.16052
1.1606
1.16067
1.16074
1.16081
1.16088
1.16095
1.16102
1.1611
1.16119
1.1613
1.16143
1.16161
1.16186
1.16223
1.16279
1.16364
1.16495
1.16692
1.16979
1.17363
1.17821
1.14382
1.14758
1.15087
1.1535
1.15543
1.15679
1.15772
1.15835
1.15879
1.15909
1.15931
1.15949
1.15964
1.15976
1.15988
1.15998
1.16008
1.16018
1.16027
1.16035
1.16044
1.16052
1.16059
1.16067
1.16074
1.16082
1.1609
1.16099
1.16109
1.16122
1.16139
1.16163
1.16198
1.16251
1.16332
1.1646
1.16656
1.16945
1.17338
1.17813
1.14375
1.14736
1.15056
1.15312
1.15503
1.15638
1.1573
1.15793
1.15836
1.15867
1.1589
1.15908
1.15923
1.15937
1.1595
1.15962
1.15973
1.15985
1.15995
1.16006
1.16015
1.16025
1.16034
1.16042
1.16051
1.16059
1.16068
1.16077
1.16088
1.16101
1.16117
1.16139
1.16172
1.16222
1.163
1.16424
1.16618
1.16909
1.17312
1.17803
1.14367
1.14715
1.15023
1.15272
1.15459
1.15592
1.15683
1.15745
1.15787
1.15817
1.1584
1.15858
1.15874
1.15889
1.15903
1.15917
1.1593
1.15943
1.15956
1.15968
1.1598
1.15991
1.16002
1.16013
1.16023
1.16033
1.16042
1.16053
1.16064
1.16076
1.16092
1.16114
1.16144
1.16191
1.16266
1.16385
1.16576
1.16869
1.17282
1.17792
1.14359
1.14692
1.14989
1.15229
1.15411
1.1554
1.1563
1.1569
1.15731
1.1576
1.15782
1.158
1.15816
1.15831
1.15847
1.15862
1.15877
1.15892
1.15907
1.15922
1.15936
1.15949
1.15963
1.15975
1.15987
1.15999
1.16011
1.16022
1.16034
1.16048
1.16064
1.16084
1.16113
1.16157
1.16228
1.16342
1.1653
1.16825
1.17249
1.1778
1.14351
1.14668
1.14952
1.15183
1.15358
1.15484
1.1557
1.15628
1.15667
1.15694
1.15715
1.15732
1.15748
1.15764
1.1578
1.15797
1.15814
1.15831
1.15848
1.15865
1.15881
1.15897
1.15913
1.15928
1.15943
1.15957
1.15971
1.15984
1.15998
1.16012
1.16029
1.1605
1.16077
1.16119
1.16185
1.16295
1.16479
1.16776
1.17213
1.17767
1.14342
1.14642
1.14912
1.15133
1.15301
1.15421
1.15504
1.15559
1.15595
1.1562
1.15639
1.15656
1.15671
1.15687
1.15703
1.15721
1.15739
1.15758
1.15777
1.15796
1.15816
1.15834
1.15853
1.15871
1.15888
1.15905
1.15921
1.15937
1.15953
1.15969
1.15987
1.16008
1.16035
1.16074
1.16137
1.16242
1.16423
1.16722
1.17171
1.17751
1.14333
1.14615
1.1487
1.15079
1.15239
1.15353
1.15431
1.15483
1.15516
1.15539
1.15556
1.15571
1.15585
1.156
1.15617
1.15635
1.15654
1.15674
1.15695
1.15717
1.15738
1.15759
1.15781
1.15801
1.15822
1.15841
1.1586
1.15879
1.15898
1.15916
1.15936
1.15958
1.15985
1.16023
1.16083
1.16184
1.16361
1.16661
1.17125
1.17734
1.14323
1.14586
1.14824
1.15021
1.15171
1.15279
1.15352
1.154
1.1543
1.1545
1.15465
1.15478
1.15491
1.15505
1.15521
1.15539
1.15559
1.1558
1.15603
1.15626
1.15649
1.15673
1.15697
1.1572
1.15743
1.15766
1.15788
1.1581
1.15831
1.15853
1.15875
1.15899
1.15927
1.15964
1.16022
1.16119
1.16292
1.16595
1.17073
1.17714
1.14313
1.14556
1.14776
1.14958
1.15098
1.15199
1.15267
1.1531
1.15337
1.15354
1.15367
1.15378
1.1539
1.15403
1.15419
1.15436
1.15456
1.15478
1.15501
1.15526
1.15551
1.15576
1.15602
1.15628
1.15654
1.15679
1.15705
1.15729
1.15754
1.15779
1.15804
1.1583
1.1586
1.15898
1.15954
1.16048
1.16218
1.16522
1.17016
1.17692
1.14302
1.14524
1.14725
1.14892
1.15021
1.15113
1.15175
1.15214
1.15238
1.15253
1.15264
1.15273
1.15284
1.15296
1.15311
1.15328
1.15348
1.15369
1.15393
1.15418
1.15445
1.15471
1.15499
1.15527
1.15555
1.15583
1.15611
1.15639
1.15667
1.15695
1.15723
1.15753
1.15785
1.15825
1.15881
1.15972
1.16139
1.16444
1.16954
1.17668
1.1429
1.1449
1.14671
1.14822
1.14938
1.15022
1.15077
1.15112
1.15133
1.15147
1.15156
1.15165
1.15174
1.15186
1.152
1.15217
1.15236
1.15258
1.15282
1.15307
1.15334
1.15362
1.1539
1.1542
1.15449
1.15479
1.1551
1.1554
1.15571
1.15603
1.15635
1.15668
1.15704
1.15746
1.15803
1.15893
1.16056
1.16361
1.16887
1.17641
1.14278
1.14454
1.14614
1.14748
1.14851
1.14925
1.14975
1.15006
1.15025
1.15037
1.15046
1.15054
1.15064
1.15075
1.15089
1.15106
1.15125
1.15147
1.15171
1.15196
1.15223
1.15252
1.15281
1.15311
1.15342
1.15373
1.15406
1.15438
1.15472
1.15506
1.15542
1.15579
1.15619
1.15664
1.15723
1.15812
1.15972
1.16277
1.16818
1.17612
1.14266
1.14417
1.14555
1.14671
1.1476
1.14824
1.14868
1.14896
1.14914
1.14926
1.14936
1.14945
1.14956
1.14968
1.14983
1.15
1.1502
1.15042
1.15066
1.15091
1.15118
1.15146
1.15176
1.15206
1.15238
1.1527
1.15304
1.15338
1.15374
1.15411
1.15449
1.1549
1.15534
1.15583
1.15645
1.15735
1.15892
1.16194
1.16747
1.17583
1.14253
1.1438
1.14494
1.14591
1.14667
1.14721
1.1476
1.14786
1.14804
1.14818
1.1483
1.14842
1.14855
1.1487
1.14886
1.14905
1.14925
1.14948
1.14972
1.14997
1.15024
1.15052
1.15082
1.15112
1.15144
1.15177
1.15211
1.15247
1.15284
1.15323
1.15364
1.15408
1.15456
1.15509
1.15574
1.15664
1.15818
1.16115
1.16677
1.17552
1.14241
1.14342
1.14435
1.14513
1.14575
1.14621
1.14656
1.14682
1.14703
1.1472
1.14736
1.14752
1.14768
1.14786
1.14805
1.14825
1.14847
1.1487
1.14894
1.1492
1.14947
1.14975
1.15004
1.15035
1.15067
1.151
1.15135
1.15172
1.1521
1.15251
1.15294
1.15341
1.15392
1.15449
1.15516
1.15608
1.15757
1.16048
1.16614
1.17523
1.1423
1.14309
1.14381
1.14443
1.14494
1.14535
1.14568
1.14596
1.14619
1.14641
1.14661
1.14681
1.14701
1.14722
1.14744
1.14766
1.14789
1.14813
1.14838
1.14865
1.14892
1.1492
1.14949
1.1498
1.15012
1.15046
1.15081
1.15119
1.15158
1.15201
1.15246
1.15295
1.15349
1.15409
1.1548
1.15572
1.15718
1.16
1.16563
1.17499
1.14222
1.14284
1.14341
1.14392
1.14436
1.14474
1.14508
1.14537
1.14564
1.1459
1.14614
1.14637
1.14661
1.14684
1.14707
1.14731
1.14756
1.14781
1.14807
1.14833
1.14861
1.14889
1.14919
1.1495
1.14983
1.15017
1.15053
1.15092
1.15133
1.15176
1.15224
1.15275
1.15332
1.15395
1.15469
1.15563
1.15708
1.15982
1.16538
1.17484
1.14218
1.14272
1.14323
1.14369
1.1441
1.14448
1.14482
1.14513
1.14542
1.14569
1.14595
1.14621
1.14645
1.1467
1.14694
1.14719
1.14744
1.1477
1.14796
1.14823
1.14851
1.1488
1.1491
1.14941
1.14975
1.15009
1.15046
1.15086
1.15127
1.15173
1.15221
1.15274
1.15333
1.15399
1.15475
1.15574
1.15723
1.15998
1.16543
1.17483
1.14777
1.15739
1.16279
1.16538
1.16676
1.1677
1.16844
1.16908
1.16966
1.17018
1.17065
1.1711
1.17151
1.17189
1.17226
1.1726
1.17293
1.17324
1.17354
1.17383
1.17411
1.17438
1.17465
1.17491
1.17516
1.17541
1.17566
1.17591
1.17617
1.17643
1.1767
1.17698
1.17728
1.1776
1.17795
1.17833
1.17876
1.17923
1.17975
1.18033
1.14786
1.15769
1.16319
1.16568
1.16697
1.16784
1.16854
1.16915
1.1697
1.17019
1.17065
1.17108
1.17148
1.17186
1.17221
1.17255
1.17287
1.17318
1.17347
1.17376
1.17403
1.1743
1.17456
1.17481
1.17506
1.1753
1.17554
1.17578
1.17602
1.17626
1.1765
1.17675
1.17702
1.17731
1.17765
1.17803
1.17848
1.17901
1.17961
1.18028
1.14777
1.15752
1.1631
1.16563
1.16691
1.16774
1.1684
1.16898
1.1695
1.16997
1.17041
1.17082
1.17121
1.17157
1.17192
1.17225
1.17257
1.17287
1.17316
1.17345
1.17372
1.17398
1.17423
1.17447
1.17471
1.17493
1.17515
1.17535
1.17555
1.17575
1.17594
1.17614
1.17636
1.17661
1.17693
1.17733
1.17786
1.17853
1.17931
1.18018
1.14751
1.15701
1.16262
1.16524
1.16654
1.16735
1.16798
1.16852
1.16901
1.16946
1.16988
1.17027
1.17065
1.17101
1.17135
1.17168
1.17199
1.1723
1.17259
1.17287
1.17314
1.17339
1.17364
1.17387
1.17409
1.17429
1.17448
1.17465
1.1748
1.17494
1.17508
1.17521
1.17538
1.1756
1.17592
1.17638
1.17703
1.17789
1.17892
1.18006
1.14718
1.1563
1.16189
1.16459
1.16593
1.16673
1.16732
1.16782
1.16828
1.1687
1.1691
1.16948
1.16985
1.1702
1.17054
1.17086
1.17118
1.17148
1.17177
1.17205
1.17232
1.17258
1.17282
1.17304
1.17325
1.17343
1.17359
1.17372
1.17384
1.17393
1.17401
1.17411
1.17424
1.17445
1.1748
1.17534
1.17613
1.1772
1.17849
1.17992
1.14683
1.15549
1.16101
1.1638
1.16517
1.16596
1.16652
1.16698
1.1674
1.16779
1.16817
1.16853
1.16888
1.16922
1.16955
1.16987
1.17018
1.17049
1.17078
1.17106
1.17133
1.17159
1.17183
1.17205
1.17225
1.17242
1.17256
1.17267
1.17275
1.17281
1.17287
1.17294
1.17306
1.17328
1.17368
1.17431
1.17525
1.17652
1.17806
1.17978
1.14648
1.15467
1.16009
1.16293
1.16434
1.16512
1.16565
1.16607
1.16645
1.16681
1.16715
1.16749
1.16782
1.16814
1.16846
1.16878
1.16908
1.16938
1.16968
1.16996
1.17023
1.17049
1.17073
1.17095
1.17114
1.17131
1.17144
1.17154
1.17161
1.17166
1.17171
1.17178
1.17191
1.17216
1.17261
1.17333
1.1744
1.17587
1.17765
1.17964
1.14615
1.15387
1.15914
1.16203
1.16349
1.16428
1.16478
1.16517
1.16551
1.16582
1.16613
1.16644
1.16674
1.16705
1.16735
1.16765
1.16794
1.16824
1.16852
1.1688
1.16907
1.16933
1.16957
1.16979
1.16999
1.17015
1.17029
1.17039
1.17046
1.17051
1.17057
1.17066
1.1708
1.17109
1.17159
1.17241
1.17361
1.17525
1.17726
1.17951
1.14584
1.1531
1.15822
1.16113
1.16264
1.16345
1.16394
1.1643
1.16461
1.16489
1.16516
1.16544
1.16571
1.16599
1.16626
1.16654
1.16682
1.1671
1.16738
1.16765
1.16791
1.16817
1.16841
1.16863
1.16883
1.169
1.16914
1.16926
1.16934
1.1694
1.16947
1.16958
1.16975
1.17008
1.17065
1.17154
1.17286
1.17466
1.17689
1.17938
1.14557
1.1524
1.15735
1.16028
1.16183
1.16267
1.16316
1.16351
1.16379
1.16403
1.16428
1.16452
1.16476
1.165
1.16525
1.16551
1.16576
1.16602
1.16628
1.16654
1.16679
1.16704
1.16728
1.1675
1.1677
1.16788
1.16803
1.16816
1.16825
1.16834
1.16843
1.16857
1.16877
1.16914
1.16976
1.17073
1.17216
1.1741
1.17653
1.17926
1.14532
1.15176
1.15655
1.15948
1.16108
1.16195
1.16246
1.1628
1.16306
1.16328
1.16349
1.1637
1.16391
1.16413
1.16435
1.16457
1.1648
1.16504
1.16528
1.16552
1.16575
1.16599
1.16622
1.16643
1.16663
1.16681
1.16697
1.16711
1.16723
1.16733
1.16745
1.16761
1.16785
1.16826
1.16894
1.16998
1.1715
1.17359
1.1762
1.17915
1.14511
1.15119
1.15581
1.15873
1.16038
1.1613
1.16183
1.16218
1.16243
1.16264
1.16283
1.16301
1.16319
1.16337
1.16356
1.16376
1.16396
1.16417
1.16438
1.1646
1.16481
1.16503
1.16524
1.16545
1.16564
1.16582
1.16599
1.16614
1.16627
1.1664
1.16654
1.16673
1.16701
1.16746
1.16818
1.16929
1.1709
1.1731
1.17589
1.17904
1.14492
1.15068
1.15514
1.15805
1.15975
1.16072
1.16129
1.16165
1.1619
1.1621
1.16227
1.16243
1.16258
1.16274
1.1629
1.16307
1.16324
1.16342
1.1636
1.16379
1.16399
1.16418
1.16438
1.16457
1.16475
1.16493
1.16509
1.16525
1.16539
1.16554
1.1657
1.16592
1.16623
1.16672
1.16748
1.16865
1.17033
1.17265
1.17559
1.17893
1.14475
1.15022
1.15455
1.15744
1.15918
1.1602
1.16081
1.1612
1.16146
1.16165
1.16181
1.16195
1.16209
1.16222
1.16236
1.1625
1.16264
1.16279
1.16295
1.16311
1.16328
1.16345
1.16362
1.1638
1.16397
1.16413
1.16429
1.16445
1.1646
1.16476
1.16495
1.16518
1.16552
1.16604
1.16685
1.16806
1.16982
1.17224
1.17532
1.17884
1.14461
1.14982
1.15401
1.15688
1.15867
1.15975
1.1604
1.16081
1.16109
1.16128
1.16144
1.16157
1.16169
1.16181
1.16192
1.16204
1.16216
1.16228
1.16241
1.16255
1.16269
1.16284
1.16299
1.16314
1.1633
1.16345
1.1636
1.16375
1.1639
1.16407
1.16427
1.16453
1.16489
1.16544
1.16627
1.16752
1.16934
1.17185
1.17506
1.17874
1.14448
1.14947
1.15353
1.15639
1.15822
1.15934
1.16004
1.16048
1.16078
1.16098
1.16114
1.16126
1.16137
1.16147
1.16157
1.16167
1.16177
1.16187
1.16198
1.1621
1.16221
1.16234
1.16247
1.1626
1.16273
1.16287
1.16301
1.16315
1.1633
1.16347
1.16368
1.16395
1.16433
1.1649
1.16575
1.16703
1.1689
1.17148
1.17481
1.17866
1.14437
1.14915
1.1531
1.15594
1.1578
1.15897
1.15972
1.16019
1.16051
1.16072
1.16088
1.16101
1.16111
1.16121
1.16129
1.16138
1.16146
1.16155
1.16164
1.16173
1.16183
1.16193
1.16204
1.16215
1.16227
1.16239
1.16252
1.16265
1.1628
1.16296
1.16317
1.16345
1.16384
1.16442
1.16529
1.16659
1.16849
1.17114
1.17458
1.17857
1.14427
1.14887
1.15272
1.15553
1.15742
1.15863
1.15942
1.15992
1.16026
1.16049
1.16066
1.16079
1.16089
1.16098
1.16106
1.16114
1.16122
1.16129
1.16137
1.16145
1.16153
1.16161
1.1617
1.1618
1.1619
1.162
1.16211
1.16223
1.16237
1.16254
1.16274
1.16302
1.16342
1.164
1.16487
1.16618
1.1681
1.17081
1.17435
1.17849
1.14418
1.14861
1.15236
1.15515
1.15705
1.15831
1.15913
1.15966
1.16002
1.16027
1.16045
1.16058
1.16069
1.16078
1.16086
1.16093
1.161
1.16107
1.16114
1.16121
1.16128
1.16135
1.16143
1.16151
1.1616
1.16169
1.16179
1.1619
1.16203
1.16218
1.16238
1.16266
1.16304
1.16362
1.16449
1.1658
1.16774
1.17049
1.17413
1.17841
1.14409
1.14838
1.15203
1.15478
1.1567
1.15799
1.15883
1.15939
1.15977
1.16003
1.16022
1.16037
1.16048
1.16058
1.16066
1.16074
1.16081
1.16087
1.16094
1.161
1.16107
1.16114
1.1612
1.16127
1.16135
1.16143
1.16152
1.16162
1.16174
1.16189
1.16208
1.16234
1.16272
1.16329
1.16414
1.16544
1.16738
1.17017
1.1739
1.17833
1.14401
1.14815
1.15171
1.15443
1.15635
1.15766
1.15852
1.15911
1.1595
1.15977
1.15997
1.16013
1.16025
1.16035
1.16044
1.16053
1.1606
1.16067
1.16074
1.16081
1.16087
1.16094
1.161
1.16107
1.16114
1.16121
1.1613
1.16139
1.1615
1.16164
1.16182
1.16207
1.16244
1.16298
1.16382
1.16509
1.16703
1.16985
1.17367
1.17824
1.14394
1.14794
1.1514
1.15408
1.15599
1.15731
1.15819
1.15878
1.15919
1.15947
1.15968
1.15984
1.15998
1.16009
1.16019
1.16028
1.16037
1.16045
1.16053
1.1606
1.16067
1.16074
1.16081
1.16088
1.16094
1.16102
1.1611
1.16118
1.16129
1.16142
1.16159
1.16183
1.16217
1.1627
1.1635
1.16475
1.16667
1.16952
1.17343
1.17816
1.14386
1.14772
1.15109
1.15371
1.15561
1.15693
1.15782
1.15842
1.15882
1.15911
1.15933
1.1595
1.15964
1.15977
1.15988
1.15999
1.16009
1.16018
1.16027
1.16036
1.16044
1.16052
1.16059
1.16067
1.16074
1.16082
1.1609
1.16098
1.16108
1.16121
1.16137
1.1616
1.16192
1.16242
1.16319
1.1644
1.1663
1.16916
1.17317
1.17806
1.14378
1.1475
1.15077
1.15334
1.15521
1.15651
1.1574
1.158
1.1584
1.15869
1.15891
1.15908
1.15923
1.15937
1.1595
1.15962
1.15974
1.15985
1.15996
1.16006
1.16016
1.16025
1.16034
1.16043
1.16051
1.16059
1.16068
1.16077
1.16087
1.16099
1.16115
1.16136
1.16167
1.16213
1.16286
1.16403
1.1659
1.16878
1.17288
1.17796
1.14371
1.14728
1.15044
1.15293
1.15477
1.15605
1.15693
1.15751
1.15791
1.15819
1.15841
1.15859
1.15874
1.15889
1.15903
1.15917
1.1593
1.15943
1.15956
1.15968
1.1598
1.15991
1.16002
1.16013
1.16023
1.16032
1.16042
1.16052
1.16063
1.16075
1.1609
1.1611
1.16139
1.16183
1.16251
1.16363
1.16546
1.16836
1.17256
1.17784
1.14362
1.14705
1.15008
1.1525
1.15429
1.15554
1.1564
1.15696
1.15735
1.15762
1.15783
1.158
1.15816
1.15831
1.15846
1.15861
1.15877
1.15892
1.15907
1.15921
1.15936
1.15949
1.15962
1.15975
1.15987
1.15999
1.1601
1.16022
1.16033
1.16046
1.16062
1.16081
1.16108
1.16149
1.16213
1.1632
1.16498
1.16789
1.17221
1.17771
1.14354
1.1468
1.14971
1.15204
1.15377
1.15498
1.1558
1.15635
1.15671
1.15696
1.15715
1.15732
1.15748
1.15763
1.15779
1.15796
1.15813
1.1583
1.15847
1.15864
1.15881
1.15897
1.15913
1.15928
1.15942
1.15956
1.1597
1.15983
1.15997
1.16011
1.16027
1.16046
1.16072
1.1611
1.1617
1.16271
1.16445
1.16737
1.17181
1.17756
1.14345
1.14654
1.14931
1.15154
1.1532
1.15436
1.15515
1.15566
1.15599
1.15622
1.1564
1.15655
1.1567
1.15685
1.15702
1.15719
1.15738
1.15757
1.15776
1.15795
1.15815
1.15833
1.15852
1.1587
1.15887
1.15904
1.1592
1.15936
1.15951
1.15967
1.15984
1.16004
1.16029
1.16065
1.16121
1.16217
1.16386
1.16678
1.17135
1.17739
1.14335
1.14627
1.14888
1.151
1.15258
1.15369
1.15443
1.1549
1.1552
1.15541
1.15556
1.1557
1.15583
1.15598
1.15615
1.15633
1.15652
1.15672
1.15693
1.15715
1.15736
1.15758
1.15779
1.158
1.1582
1.1584
1.15859
1.15878
1.15896
1.15914
1.15933
1.15954
1.15979
1.16013
1.16067
1.16158
1.16321
1.16613
1.17084
1.1772
1.14325
1.14597
1.14842
1.15042
1.15191
1.15295
1.15364
1.15408
1.15434
1.15452
1.15465
1.15477
1.15489
1.15503
1.15519
1.15537
1.15556
1.15578
1.156
1.15623
1.15647
1.15671
1.15695
1.15718
1.15741
1.15764
1.15786
1.15808
1.15829
1.1585
1.15871
1.15894
1.1592
1.15954
1.16005
1.16092
1.1625
1.16542
1.17027
1.17697
1.14315
1.14566
1.14793
1.14979
1.15118
1.15215
1.15279
1.15319
1.15342
1.15357
1.15368
1.15377
1.15388
1.154
1.15415
1.15433
1.15453
1.15474
1.15498
1.15522
1.15547
1.15573
1.15599
1.15625
1.15651
1.15676
1.15701
1.15726
1.15751
1.15775
1.15799
1.15825
1.15853
1.15887
1.15937
1.1602
1.16173
1.16463
1.16963
1.17672
1.14303
1.14533
1.14741
1.14913
1.15041
1.1513
1.15188
1.15223
1.15243
1.15256
1.15264
1.15272
1.15281
1.15292
1.15307
1.15324
1.15343
1.15365
1.15389
1.15414
1.1544
1.15467
1.15495
1.15523
1.15551
1.15579
1.15607
1.15634
1.15662
1.1569
1.15717
1.15746
1.15777
1.15813
1.15863
1.15943
1.16091
1.16379
1.16894
1.17644
1.14292
1.14498
1.14686
1.14842
1.14958
1.15039
1.15091
1.15122
1.15139
1.1515
1.15157
1.15163
1.15171
1.15182
1.15195
1.15212
1.15231
1.15253
1.15276
1.15302
1.15329
1.15356
1.15385
1.15414
1.15444
1.15474
1.15504
1.15535
1.15565
1.15596
1.15628
1.1566
1.15694
1.15733
1.15784
1.15862
1.16005
1.1629
1.16818
1.17613
1.1428
1.14462
1.14628
1.14766
1.1487
1.14942
1.14988
1.15015
1.1503
1.1504
1.15046
1.15052
1.1506
1.15071
1.15084
1.151
1.15119
1.15141
1.15165
1.1519
1.15217
1.15245
1.15274
1.15304
1.15335
1.15366
1.15398
1.15431
1.15464
1.15498
1.15533
1.15569
1.15607
1.1565
1.15703
1.15781
1.15919
1.16199
1.16739
1.17579
1.14267
1.14424
1.14567
1.14687
1.14778
1.1484
1.1488
1.14904
1.14919
1.14928
1.14935
1.14942
1.14951
1.14963
1.14977
1.14994
1.15013
1.15035
1.15058
1.15084
1.15111
1.15139
1.15168
1.15198
1.15229
1.15262
1.15295
1.15329
1.15364
1.15401
1.15439
1.15478
1.15521
1.15568
1.15624
1.15702
1.15837
1.1611
1.16658
1.17543
1.14254
1.14385
1.14505
1.14605
1.14681
1.14733
1.14769
1.14792
1.14807
1.14818
1.14828
1.14838
1.1485
1.14863
1.14879
1.14897
1.14917
1.1494
1.14963
1.14989
1.15015
1.15043
1.15072
1.15103
1.15134
1.15167
1.15201
1.15236
1.15273
1.15311
1.15351
1.15394
1.1544
1.15491
1.15551
1.1563
1.15761
1.16026
1.16578
1.17507
1.14242
1.14346
1.14441
1.14522
1.14584
1.14629
1.14661
1.14684
1.14702
1.14717
1.14731
1.14745
1.14761
1.14778
1.14796
1.14816
1.14838
1.14861
1.14885
1.14911
1.14937
1.14965
1.14994
1.15024
1.15056
1.15089
1.15123
1.15159
1.15197
1.15237
1.15279
1.15325
1.15374
1.15429
1.15492
1.15573
1.157
1.15956
1.16509
1.17474
1.1423
1.1431
1.14383
1.14446
1.14496
1.14536
1.14567
1.14593
1.14614
1.14635
1.14654
1.14673
1.14693
1.14714
1.14735
1.14757
1.14781
1.14805
1.14829
1.14855
1.14882
1.1491
1.14939
1.1497
1.15001
1.15034
1.15069
1.15106
1.15145
1.15186
1.15231
1.15279
1.15331
1.15389
1.15456
1.15539
1.15663
1.1591
1.16458
1.17449
1.14222
1.14283
1.1434
1.1439
1.14433
1.1447
1.14502
1.14531
1.14557
1.14582
1.14606
1.1463
1.14653
1.14676
1.147
1.14724
1.14748
1.14773
1.14799
1.14825
1.14853
1.14881
1.14911
1.14941
1.14974
1.15007
1.15043
1.15081
1.15121
1.15164
1.1521
1.15261
1.15316
1.15377
1.15448
1.15534
1.1566
1.159
1.1644
1.17437
1.14218
1.14271
1.14321
1.14365
1.14406
1.14443
1.14476
1.14507
1.14536
1.14564
1.1459
1.14615
1.1464
1.14665
1.14689
1.14714
1.14739
1.14765
1.14791
1.14818
1.14846
1.14875
1.14905
1.14936
1.14969
1.15003
1.1504
1.15079
1.1512
1.15165
1.15213
1.15266
1.15323
1.15388
1.15462
1.15554
1.1569
1.1594
1.16471
1.17447
1.14793
1.15772
1.16307
1.16554
1.16687
1.16778
1.16851
1.16914
1.16971
1.17022
1.1707
1.17114
1.17155
1.17193
1.17229
1.17264
1.17296
1.17327
1.17357
1.17386
1.17414
1.17441
1.17467
1.17493
1.17519
1.17544
1.17569
1.17594
1.1762
1.17646
1.17673
1.17701
1.1773
1.17762
1.17797
1.17835
1.17877
1.17924
1.17976
1.18033
1.14808
1.15815
1.16358
1.16591
1.16711
1.16795
1.16863
1.16923
1.16977
1.17026
1.17072
1.17114
1.17154
1.17191
1.17226
1.1726
1.17292
1.17322
1.17351
1.1738
1.17407
1.17434
1.1746
1.17485
1.1751
1.17534
1.17558
1.17582
1.17605
1.17629
1.17653
1.17678
1.17705
1.17733
1.17766
1.17803
1.17848
1.17901
1.17961
1.18028
1.148
1.15803
1.16353
1.1659
1.16707
1.16786
1.16851
1.16907
1.16958
1.17005
1.17048
1.17089
1.17127
1.17163
1.17198
1.17231
1.17262
1.17292
1.17321
1.17349
1.17376
1.17402
1.17427
1.17452
1.17475
1.17498
1.17519
1.1754
1.17559
1.17578
1.17597
1.17616
1.17636
1.1766
1.1769
1.1773
1.17783
1.1785
1.1793
1.18018
1.14775
1.15753
1.16307
1.16552
1.16671
1.16747
1.16808
1.16861
1.16909
1.16953
1.16995
1.17034
1.17071
1.17107
1.17141
1.17173
1.17204
1.17235
1.17264
1.17292
1.17318
1.17344
1.17368
1.17392
1.17413
1.17433
1.17452
1.17468
1.17483
1.17496
1.17508
1.1752
1.17535
1.17555
1.17586
1.1763
1.17696
1.17783
1.17889
1.18005
1.14741
1.1568
1.16234
1.16488
1.1661
1.16684
1.16741
1.16791
1.16835
1.16877
1.16916
1.16954
1.1699
1.17025
1.17059
1.17091
1.17123
1.17153
1.17182
1.1721
1.17237
1.17262
1.17286
1.17309
1.17329
1.17347
1.17362
1.17375
1.17385
1.17393
1.174
1.17408
1.17419
1.17438
1.17471
1.17523
1.17604
1.17713
1.17845
1.17991
1.14702
1.15594
1.16144
1.16408
1.16534
1.16607
1.1666
1.16705
1.16746
1.16785
1.16822
1.16858
1.16893
1.16927
1.16959
1.16992
1.17023
1.17053
1.17082
1.17111
1.17138
1.17163
1.17187
1.17209
1.17228
1.17245
1.17258
1.17269
1.17276
1.17281
1.17285
1.1729
1.173
1.1732
1.17357
1.17419
1.17513
1.17643
1.17802
1.17977
1.14665
1.15507
1.16048
1.1632
1.16451
1.16523
1.16573
1.16614
1.16651
1.16686
1.1672
1.16753
1.16786
1.16818
1.1685
1.16881
1.16912
1.16942
1.16971
1.17
1.17027
1.17052
1.17077
1.17098
1.17117
1.17134
1.17146
1.17156
1.17162
1.17165
1.17168
1.17174
1.17184
1.17206
1.17249
1.1732
1.17428
1.17578
1.1776
1.17963
1.14629
1.15422
1.15951
1.16229
1.16365
1.16438
1.16485
1.16522
1.16555
1.16586
1.16617
1.16648
1.16678
1.16708
1.16738
1.16768
1.16797
1.16827
1.16855
1.16883
1.1691
1.16936
1.1696
1.16982
1.17002
1.17018
1.17031
1.17041
1.17047
1.17051
1.17055
1.17062
1.17074
1.171
1.17148
1.17228
1.17348
1.17515
1.1772
1.17949
1.14596
1.15342
1.15856
1.16138
1.1628
1.16354
1.16401
1.16435
1.16464
1.16492
1.16519
1.16546
1.16574
1.16601
1.16629
1.16657
1.16685
1.16713
1.1674
1.16767
1.16794
1.16819
1.16844
1.16866
1.16886
1.16902
1.16917
1.16927
1.16934
1.1694
1.16945
1.16955
1.16969
1.17
1.17054
1.17142
1.17273
1.17455
1.17682
1.17937
1.14567
1.15268
1.15766
1.16051
1.16198
1.16276
1.16322
1.16355
1.16382
1.16406
1.1643
1.16454
1.16478
1.16502
1.16527
1.16553
1.16578
1.16604
1.1663
1.16656
1.16682
1.16706
1.1673
1.16752
1.16772
1.1679
1.16805
1.16817
1.16826
1.16834
1.16842
1.16853
1.16872
1.16906
1.16966
1.17061
1.17203
1.174
1.17647
1.17925
1.14541
1.152
1.15682
1.15969
1.16122
1.16204
1.16252
1.16284
1.16309
1.16331
1.16351
1.16372
1.16393
1.16414
1.16436
1.16459
1.16482
1.16505
1.16529
1.16553
1.16577
1.16601
1.16623
1.16645
1.16665
1.16683
1.16699
1.16712
1.16723
1.16733
1.16744
1.16759
1.16781
1.1682
1.16885
1.16987
1.17138
1.17348
1.17613
1.17913
1.14518
1.1514
1.15606
1.15894
1.16052
1.16139
1.16189
1.16221
1.16246
1.16266
1.16284
1.16302
1.1632
1.16338
1.16357
1.16377
1.16397
1.16418
1.16439
1.16461
1.16483
1.16504
1.16526
1.16546
1.16566
1.16584
1.166
1.16615
1.16628
1.1664
1.16653
1.1667
1.16696
1.16739
1.16809
1.16917
1.17077
1.17299
1.17582
1.17902
1.14498
1.15086
1.15537
1.15824
1.15988
1.1608
1.16134
1.16168
1.16192
1.16211
1.16228
1.16244
1.16259
1.16275
1.16291
1.16308
1.16325
1.16343
1.16361
1.1638
1.164
1.16419
1.16439
1.16458
1.16476
1.16494
1.1651
1.16525
1.1654
1.16554
1.16569
1.1659
1.16619
1.16666
1.1674
1.16854
1.17021
1.17254
1.17552
1.17892
1.1448
1.15038