/*--------------------------------*- C++ -*----------------------------------*\
  =========                 |
  \\      /  F ield         | OpenFOAM: The Open Source CFD Toolbox
   \\    /   O peration     | Website:  https://openfoam.org
    \\  /    A nd           | Version:  12
     \\/     M anipulation  |
\*---------------------------------------------------------------------------*/
FoamFile
{
    format      ascii;
    class       volScalarField;
    location    "400";
    object      T;
}
// * * * * * * * * * * * * * * * * * * * * * * * * * * * * * * * * * * * * * //

dimensions      [0 0 0 1 0 0 0];

internalField   nonuniform List<scalar> 
8000
(
303.533
301.108
299.674
298.947
298.554
298.299
298.102
297.935
297.787
297.653
297.531
297.417
297.312
297.213
297.12
297.032
296.948
296.868
296.792
296.718
296.648
296.579
296.512
296.447
296.383
296.32
296.257
296.194
296.131
296.066
295.998
295.928
295.852
295.771
295.682
295.584
295.475
295.354
295.22
295.075
303.537
301.097
299.635
298.908
298.528
298.283
298.095
297.934
297.791
297.662
297.543
297.433
297.33
297.233
297.142
297.055
296.972
296.894
296.818
296.746
296.676
296.608
296.542
296.478
296.416
296.355
296.295
296.235
296.175
296.115
296.053
295.988
295.919
295.842
295.756
295.656
295.54
295.405
295.253
295.086
303.574
301.161
299.683
298.938
298.555
298.317
298.136
297.983
297.847
297.724
297.609
297.503
297.403
297.309
297.219
297.134
297.052
296.975
296.9
296.828
296.759
296.692
296.628
296.567
296.507
296.45
296.396
296.343
296.292
296.241
296.19
296.136
296.076
296.007
295.922
295.815
295.68
295.515
295.322
295.109
303.637
301.293
299.811
299.045
298.652
298.417
298.244
298.099
297.971
297.853
297.744
297.641
297.544
297.452
297.363
297.279
297.198
297.12
297.046
296.974
296.906
296.84
296.778
296.718
296.663
296.611
296.563
296.519
296.478
296.439
296.4
296.359
296.309
296.245
296.157
296.036
295.873
295.664
295.415
295.139
303.711
301.46
299.992
299.209
298.806
298.572
298.407
298.272
298.152
298.041
297.937
297.839
297.744
297.654
297.567
297.483
297.403
297.325
297.25
297.178
297.11
297.044
296.983
296.926
296.873
296.826
296.784
296.748
296.716
296.688
296.66
296.628
296.585
296.522
296.425
296.284
296.086
295.828
295.517
295.173
303.79
301.645
300.203
299.409
298.997
298.764
298.607
298.481
298.37
298.268
298.171
298.077
297.987
297.899
297.815
297.732
297.652
297.574
297.499
297.427
297.358
297.293
297.231
297.175
297.125
297.081
297.043
297.012
296.988
296.966
296.945
296.918
296.877
296.81
296.701
296.536
296.301
295.992
295.62
295.207
303.867
301.833
300.426
299.627
299.207
298.975
298.824
298.708
298.607
298.514
298.424
298.338
298.253
298.169
298.087
298.007
297.928
297.852
297.777
297.705
297.635
297.57
297.509
297.453
297.403
297.36
297.324
297.296
297.274
297.256
297.237
297.21
297.168
297.093
296.969
296.779
296.509
296.151
295.72
295.241
303.942
302.017
300.652
299.852
299.424
299.19
299.044
298.937
298.846
298.762
298.681
298.602
298.523
298.445
298.368
298.291
298.216
298.141
298.068
297.996
297.927
297.862
297.8
297.744
297.694
297.65
297.614
297.586
297.564
297.546
297.525
297.496
297.449
297.365
297.225
297.011
296.707
296.304
295.816
295.273
304.011
302.193
300.873
300.076
299.639
299.401
299.257
299.156
299.073
298.998
298.926
298.855
298.784
298.713
298.642
298.57
298.499
298.428
298.357
298.288
298.22
298.156
298.094
298.038
297.987
297.942
297.904
297.874
297.85
297.828
297.804
297.77
297.716
297.622
297.467
297.231
296.894
296.45
295.908
295.304
304.074
302.357
301.082
300.289
299.845
299.6
299.455
299.357
299.281
299.214
299.151
299.088
299.026
298.962
298.898
298.832
298.767
298.7
298.634
298.568
298.504
298.441
298.38
298.324
298.273
298.227
298.187
298.153
298.125
298.1
298.071
298.03
297.968
297.863
297.694
297.437
297.071
296.587
295.995
295.334
304.131
302.507
301.276
300.49
300.037
299.784
299.635
299.538
299.466
299.405
299.349
299.295
299.24
299.184
299.128
299.07
299.01
298.95
298.889
298.829
298.768
298.708
298.65
298.595
298.544
298.497
298.456
298.419
298.387
298.356
298.321
298.274
298.203
298.088
297.905
297.629
297.237
296.716
296.077
295.362
304.182
302.643
301.455
300.675
300.214
299.95
299.795
299.697
299.626
299.57
299.52
299.472
299.425
299.377
299.328
299.277
299.225
299.172
299.118
299.063
299.007
298.952
298.898
298.845
298.795
298.749
298.706
298.667
298.632
298.596
298.555
298.501
298.421
298.296
298.1
297.807
297.391
296.837
296.154
295.388
304.228
302.765
301.617
300.844
300.374
300.098
299.935
299.833
299.762
299.708
299.662
299.62
299.579
299.538
299.496
299.453
299.409
299.363
299.315
299.267
299.218
299.168
299.118
299.069
299.022
298.977
298.934
298.894
298.856
298.816
298.769
298.709
298.621
298.486
298.279
297.971
297.534
296.95
296.227
295.413
304.267
302.874
301.762
300.997
300.518
300.23
300.057
299.949
299.876
299.822
299.779
299.741
299.706
299.671
299.635
299.599
299.562
299.523
299.482
299.441
299.398
299.354
299.31
299.265
299.222
299.179
299.138
299.098
299.057
299.014
298.964
298.898
298.803
298.66
298.443
298.122
297.666
297.055
296.295
295.437
304.302
302.971
301.893
301.134
300.647
300.347
300.163
300.047
299.971
299.916
299.874
299.839
299.807
299.777
299.747
299.717
299.686
299.653
299.619
299.584
299.548
299.51
299.472
299.433
299.394
299.354
299.315
299.276
299.235
299.19
299.136
299.066
298.966
298.816
298.591
298.259
297.788
297.153
296.359
295.46
304.333
303.057
302.01
301.258
300.763
300.451
300.256
300.132
300.051
299.994
299.952
299.918
299.889
299.863
299.837
299.811
299.785
299.758
299.73
299.701
299.67
299.639
299.606
299.572
299.538
299.502
299.466
299.429
299.389
299.343
299.288
299.214
299.11
298.955
298.725
298.385
297.9
297.244
296.42
295.481
304.361
303.134
302.116
301.37
300.868
300.545
300.339
300.208
300.121
300.061
300.017
299.984
299.956
299.931
299.909
299.886
299.864
299.842
299.818
299.794
299.769
299.742
299.715
299.686
299.656
299.625
299.592
299.558
299.519
299.474
299.418
299.343
299.236
299.079
298.845
298.499
298.004
297.33
296.478
295.501
304.386
303.204
302.211
301.473
300.965
300.632
300.417
300.277
300.184
300.121
300.075
300.041
300.013
299.989
299.968
299.948
299.928
299.909
299.889
299.869
299.847
299.825
299.802
299.778
299.752
299.725
299.696
299.664
299.627
299.584
299.528
299.453
299.346
299.188
298.953
298.604
298.102
297.413
296.534
295.521
304.408
303.267
302.3
301.569
301.058
300.716
300.492
300.345
300.246
300.179
300.131
300.095
300.066
300.042
300.021
300.001
299.983
299.965
299.947
299.93
299.911
299.892
299.872
299.851
299.829
299.806
299.78
299.751
299.717
299.675
299.621
299.547
299.441
299.285
299.05
298.701
298.194
297.492
296.588
295.541
304.429
303.326
302.383
301.661
301.148
300.799
300.568
300.414
300.311
300.24
300.189
300.15
300.12
300.094
300.073
300.053
300.034
300.017
299.999
299.983
299.966
299.948
299.931
299.912
299.893
299.871
299.848
299.822
299.79
299.751
299.699
299.628
299.525
299.371
299.14
298.793
298.284
297.57
296.643
295.56
304.449
303.383
302.463
301.751
301.238
300.885
300.648
300.489
300.382
300.307
300.253
300.212
300.18
300.152
300.129
300.107
300.087
300.068
300.051
300.033
300.016
299.999
299.982
299.965
299.947
299.927
299.906
299.882
299.852
299.815
299.766
299.698
299.598
299.449
299.223
298.881
298.372
297.649
296.698
295.58
304.469
303.438
302.543
301.841
301.331
300.976
300.735
300.573
300.463
300.386
300.329
300.286
300.251
300.221
300.194
300.17
300.148
300.126
300.106
300.087
300.069
300.051
300.033
300.016
299.998
299.979
299.958
299.935
299.907
299.872
299.826
299.761
299.666
299.523
299.304
298.967
298.461
297.73
296.756
295.601
304.488
303.493
302.623
301.935
301.429
301.075
300.832
300.669
300.557
300.478
300.42
300.374
300.337
300.304
300.274
300.246
300.22
300.196
300.173
300.15
300.129
300.109
300.089
300.069
300.05
300.03
300.009
299.986
299.959
299.926
299.882
299.821
299.731
299.595
299.384
299.056
298.553
297.816
296.818
295.623
304.508
303.548
302.705
302.033
301.535
301.183
300.942
300.778
300.666
300.587
300.528
300.481
300.441
300.406
300.372
300.341
300.311
300.282
300.254
300.228
300.202
300.178
300.155
300.132
300.11
300.088
300.066
300.042
300.015
299.982
299.94
299.882
299.797
299.669
299.467
299.149
298.651
297.908
296.885
295.647
304.528
303.606
302.792
302.138
301.649
301.303
301.065
300.904
300.794
300.716
300.657
300.61
300.568
300.53
300.493
300.458
300.423
300.389
300.356
300.324
300.294
300.264
300.236
300.209
300.183
300.158
300.132
300.106
300.077
300.044
300.003
299.948
299.868
299.747
299.556
299.249
298.758
298.009
296.96
295.674
304.549
303.666
302.883
302.25
301.775
301.436
301.204
301.047
300.94
300.865
300.808
300.761
300.719
300.679
300.639
300.6
300.56
300.521
300.483
300.445
300.408
300.373
300.339
300.306
300.275
300.245
300.215
300.185
300.153
300.119
300.077
300.024
299.949
299.835
299.654
299.358
298.876
298.121
297.043
295.704
304.572
303.73
302.98
302.371
301.912
301.584
301.359
301.208
301.107
301.036
300.982
300.937
300.895
300.854
300.812
300.769
300.725
300.681
300.636
300.593
300.549
300.507
300.467
300.428
300.39
300.353
300.318
300.283
300.247
300.21
300.167
300.114
300.042
299.935
299.764
299.48
299.006
298.246
297.136
295.738
304.595
303.798
303.085
302.503
302.062
301.747
301.531
301.388
301.294
301.228
301.178
301.136
301.095
301.054
301.011
300.966
300.919
300.87
300.82
300.77
300.72
300.671
300.623
300.577
300.532
300.488
300.446
300.405
300.364
300.322
300.276
300.222
300.151
300.049
299.888
299.616
299.151
298.385
297.241
295.776
304.62
303.869
303.196
302.645
302.225
301.925
301.721
301.587
301.5
301.441
301.396
301.357
301.32
301.28
301.237
301.19
301.14
301.087
301.033
300.977
300.921
300.866
300.811
300.757
300.704
300.653
300.603
300.555
300.507
300.459
300.408
300.351
300.28
300.182
300.028
299.767
299.311
298.539
297.358
295.82
304.646
303.946
303.316
302.798
302.403
302.12
301.928
301.804
301.725
301.673
301.633
301.599
301.565
301.528
301.486
301.439
301.387
301.332
301.273
301.213
301.152
301.09
301.029
300.968
300.907
300.848
300.791
300.734
300.678
300.623
300.566
300.504
300.431
300.334
300.186
299.934
299.487
298.71
297.49
295.869
304.674
304.027
303.444
302.962
302.594
302.33
302.152
302.038
301.968
301.922
301.889
301.859
301.829
301.794
301.754
301.707
301.655
301.599
301.538
301.474
301.409
301.342
301.275
301.207
301.14
301.074
301.008
300.943
300.879
300.815
300.75
300.682
300.604
300.505
300.361
300.117
299.679
298.897
297.634
295.925
304.703
304.112
303.579
303.137
302.798
302.555
302.392
302.289
302.228
302.188
302.159
302.134
302.107
302.075
302.036
301.991
301.94
301.882
301.82
301.755
301.686
301.616
301.544
301.471
301.398
301.325
301.252
301.179
301.107
301.034
300.96
300.883
300.799
300.696
300.551
300.314
299.883
299.097
297.792
295.986
304.733
304.202
303.722
303.322
303.015
302.795
302.648
302.556
302.501
302.466
302.441
302.419
302.394
302.364
302.327
302.283
302.232
302.174
302.112
302.045
301.975
301.902
301.828
301.751
301.673
301.595
301.515
301.435
301.355
301.273
301.19
301.104
301.01
300.9
300.753
300.52
300.097
299.309
297.962
296.053
304.765
304.296
303.872
303.517
303.244
303.049
302.919
302.837
302.787
302.755
302.731
302.709
302.684
302.654
302.617
302.573
302.522
302.465
302.402
302.335
302.265
302.191
302.114
302.035
301.955
301.872
301.788
301.702
301.614
301.524
301.432
301.336
301.232
301.113
300.96
300.728
300.313
299.525
298.139
296.125
304.797
304.394
304.028
303.721
303.485
303.316
303.2
303.126
303.079
303.047
303.021
302.996
302.969
302.936
302.896
302.851
302.799
302.741
302.679
302.612
302.541
302.467
302.39
302.31
302.227
302.142
302.054
301.964
301.87
301.774
301.673
301.567
301.453
301.324
301.163
300.929
300.522
299.74
298.32
296.2
304.831
304.494
304.189
303.932
303.733
303.588
303.486
303.417
303.368
303.331
303.3
303.268
303.234
303.195
303.152
303.103
303.048
302.99
302.926
302.859
302.789
302.715
302.637
302.557
302.473
302.387
302.297
302.203
302.105
302.003
301.895
301.781
301.657
301.517
301.348
301.113
300.713
299.942
298.499
296.277
304.864
304.594
304.348
304.141
303.976
303.852
303.759
303.69
303.636
303.591
303.549
303.507
303.464
303.417
303.367
303.314
303.256
303.195
303.13
303.063
302.992
302.918
302.841
302.76
302.676
302.588
302.497
302.401
302.3
302.193
302.079
301.957
301.824
301.675
301.498
301.26
300.871
300.116
298.661
296.349
304.893
304.683
304.492
304.327
304.191
304.082
303.993
303.92
303.857
303.801
303.747
303.694
303.64
303.585
303.528
303.469
303.408
303.344
303.278
303.209
303.137
303.063
302.985
302.904
302.82
302.731
302.638
302.539
302.435
302.324
302.205
302.076
301.935
301.778
301.593
301.352
300.972
300.241
298.79
296.41
304.915
304.749
304.597
304.462
304.344
304.243
304.154
304.075
304.003
303.936
303.872
303.81
303.748
303.686
303.624
303.561
303.496
303.43
303.362
303.291
303.219
303.143
303.065
302.983
302.897
302.806
302.711
302.61
302.503
302.388
302.263
302.129
301.981
301.815
301.622
301.376
300.999
300.288
298.854
296.448
304.925
304.78
304.646
304.523
304.413
304.313
304.223
304.14
304.063
303.99
303.921
303.854
303.789
303.724
303.659
303.593
303.527
303.459
303.39
303.319
303.245
303.169
303.089
303.006
302.919
302.827
302.73
302.626
302.516
302.398
302.27
302.13
301.977
301.805
301.605
301.348
300.959
300.246
298.842
296.451
303.442
300.922
299.522
298.859
298.504
298.264
298.075
297.911
297.765
297.633
297.512
297.399
297.295
297.197
297.104
297.017
296.934
296.855
296.779
296.706
296.635
296.567
296.5
296.435
296.371
296.307
296.244
296.181
296.117
296.051
295.984
295.913
295.838
295.757
295.67
295.574
295.467
295.348
295.217
295.074
303.418
300.843
299.42
298.781
298.452
298.229
298.049
297.894
297.755
297.628
297.511
297.403
297.302
297.206
297.116
297.031
296.95
296.872
296.797
296.725
296.656
296.588
296.523
296.459
296.397
296.335
296.275
296.215
296.155
296.095
296.033
295.97
295.902
295.828
295.745
295.649
295.535
295.403
295.251
295.085
303.444
300.886
299.445
298.793
298.467
298.254
298.084
297.937
297.806
297.685
297.573
297.469
297.371
297.278
297.19
297.106
297.026
296.949
296.875
296.804
296.735
296.669
296.606
296.544
296.485
296.428
296.374
296.321
296.271
296.222
296.173
296.123
296.069
296.005
295.925
295.824
295.69
295.524
295.326
295.109
303.511
301.019
299.568
298.894
298.562
298.354
298.193
298.055
297.931
297.816
297.709
297.608
297.513
297.422
297.335
297.251
297.172
297.095
297.021
296.95
296.882
296.817
296.755
296.696
296.641
296.589
296.543
296.5
296.461
296.426
296.392
296.357
296.315
296.26
296.178
296.064
295.899
295.684
295.426
295.141
303.598
301.204
299.756
299.059
298.718
298.513
298.361
298.232
298.116
298.008
297.906
297.809
297.716
297.627
297.541
297.458
297.379
297.301
297.227
297.156
297.088
297.023
296.962
296.905
296.853
296.807
296.767
296.733
296.705
296.681
296.66
296.636
296.602
296.549
296.46
296.326
296.125
295.857
295.533
295.176
303.692
301.417
299.983
299.263
298.911
298.709
298.566
298.447
298.34
298.24
298.145
298.053
297.963
297.877
297.792
297.711
297.631
297.554
297.479
297.407
297.338
297.273
297.212
297.157
297.107
297.064
297.029
297.001
296.98
296.964
296.95
296.931
296.9
296.844
296.744
296.585
296.349
296.028
295.64
295.211
303.784
301.63
300.221
299.486
299.123
298.923
298.788
298.679
298.583
298.491
298.403
298.318
298.233
298.151
298.069
297.989
297.911
297.834
297.76
297.688
297.619
297.553
297.492
297.436
297.387
297.345
297.312
297.286
297.269
297.256
297.244
297.225
297.193
297.13
297.016
296.833
296.561
296.192
295.743
295.245
303.872
301.84
300.466
299.719
299.343
299.141
299.011
298.912
298.825
298.744
298.664
298.586
298.508
298.431
298.354
298.277
298.202
298.127
298.054
297.982
297.913
297.848
297.786
297.73
297.68
297.638
297.604
297.578
297.56
297.546
297.533
297.51
297.474
297.401
297.272
297.066
296.762
296.348
295.842
295.278
303.953
302.039
300.705
299.95
299.561
299.353
299.226
299.134
299.056
298.984
298.913
298.843
298.773
298.702
298.631
298.56
298.488
298.417
298.346
298.277
298.209
298.144
298.083
298.026
297.975
297.932
297.895
297.867
297.846
297.829
297.811
297.784
297.74
297.657
297.513
297.286
296.952
296.497
295.936
295.31
304.025
302.223
300.93
300.171
299.769
299.554
299.427
299.338
299.267
299.203
299.141
299.079
299.017
298.954
298.89
298.824
298.759
298.692
298.626
298.56
298.495
298.432
298.371
298.314
298.263
298.218
298.179
298.147
298.122
298.1
298.077
298.043
297.99
297.896
297.738
297.491
297.129
296.637
296.024
295.34
304.091
302.39
301.139
300.379
299.965
299.739
299.608
299.521
299.454
299.396
299.341
299.288
299.234
299.179
299.122
299.064
299.005
298.945
298.884
298.822
298.761
298.701
298.643
298.588
298.536
298.49
298.449
298.414
298.384
298.357
298.327
298.286
298.224
298.119
297.947
297.682
297.295
296.768
296.108
295.368
304.148
302.541
301.331
300.571
300.144
299.907
299.769
299.68
299.615
299.562
299.513
299.467
299.42
299.373
299.324
299.273
299.222
299.168
299.114
299.058
299.003
298.947
298.892
298.84
298.789
298.743
298.701
298.663
298.629
298.596
298.56
298.512
298.441
298.325
298.141
297.859
297.449
296.89
296.187
295.395
304.198
302.676
301.505
300.748
300.307
300.057
299.91
299.817
299.752
299.701
299.657
299.616
299.576
299.536
299.494
299.451
299.407
299.361
299.313
299.264
299.215
299.165
299.115
299.066
299.018
298.973
298.931
298.891
298.854
298.817
298.774
298.719
298.64
298.514
298.319
298.022
297.592
297.003
296.261
295.421
304.242
302.795
301.661
300.908
300.454
300.19
300.033
299.934
299.866
299.816
299.775
299.738
299.704
299.669
299.634
299.598
299.561
299.522
299.481
299.439
299.396
299.352
299.308
299.263
299.219
299.177
299.136
299.096
299.057
299.016
298.968
298.908
298.82
298.686
298.481
298.171
297.723
297.109
296.33
295.445
304.28
302.901
301.801
301.051
300.587
300.308
300.139
300.033
299.962
299.911
299.871
299.837
299.806
299.776
299.747
299.717
299.685
299.653
299.619
299.584
299.547
299.51
299.471
299.432
299.392
299.353
299.314
299.275
299.236
299.192
299.141
299.076
298.982
298.842
298.628
298.308
297.845
297.207
296.396
295.469
304.314
302.994
301.926
301.181
300.705
300.413
300.233
300.118
300.042
299.989
299.949
299.916
299.888
299.862
299.836
299.811
299.785
299.758
299.73
299.701
299.671
299.639
299.606
299.572
299.537
299.502
299.466
299.429
299.39
299.346
299.293
299.224
299.126
298.98
298.761
298.433
297.958
297.3
296.458
295.491
304.344
303.077
302.038
301.298
300.813
300.508
300.316
300.193
300.112
300.055
300.014
299.982
299.955
299.931
299.908
299.886
299.864
299.842
299.819
299.795
299.769
299.743
299.715
299.687
299.657
299.626
299.593
299.559
299.521
299.477
299.424
299.352
299.252
299.103
298.88
298.547
298.062
297.387
296.516
295.512
304.37
303.151
302.14
301.405
300.913
300.597
300.394
300.263
300.175
300.115
300.072
300.039
300.012
299.989
299.968
299.948
299.928
299.909
299.889
299.869
299.848
299.826
299.803
299.778
299.753
299.726
299.697
299.665
299.63
299.587
299.534
299.463
299.361
299.212
298.987
298.652
298.161
297.472
296.575
295.532
304.394
303.219
302.233
301.504
301.007
300.681
300.469
300.33
300.237
300.173
300.127
300.092
300.064
300.041
300.02
300.001
299.983
299.965
299.948
299.93
299.912
299.893
299.873
299.852
299.83
299.807
299.781
299.752
299.719
299.679
299.627
299.557
299.456
299.308
299.085
298.749
298.254
297.552
296.63
295.552
304.417
303.281
302.32
301.599
301.098
300.765
300.545
300.399
300.301
300.234
300.185
300.148
300.118
300.093
300.072
300.052
300.034
300.016
299.999
299.983
299.966
299.949
299.931
299.913
299.893
299.873
299.85
299.824
299.793
299.755
299.705
299.637
299.539
299.394
299.174
298.841
298.344
297.632
296.687
295.573
304.438
303.34
302.403
301.691
301.19
300.85
300.625
300.474
300.372
300.301
300.249
300.21
300.178
300.151
300.127
300.106
300.086
300.068
300.05
300.033
300.016
300
299.983
299.965
299.947
299.928
299.907
299.883
299.855
299.819
299.772
299.707
299.613
299.472
299.258
298.93
298.434
297.714
296.746
295.594
304.458
303.397
302.484
301.783
301.283
300.941
300.712
300.558
300.453
300.379
300.325
300.283
300.249
300.219
300.193
300.169
300.147
300.126
300.106
300.087
300.069
300.051
300.033
300.016
299.998
299.979
299.959
299.936
299.909
299.876
299.832
299.77
299.68
299.546
299.338
299.018
298.526
297.799
296.807
295.616
304.478
303.454
302.567
301.878
301.382
301.04
300.808
300.653
300.547
300.472
300.416
300.372
300.335
300.302
300.273
300.246
300.22
300.195
300.172
300.15
300.129
300.108
300.089
300.069
300.05
300.031
300.01
299.988
299.962
299.93
299.888
299.83
299.745
299.617
299.419
299.108
298.621
297.889
296.872
295.639
304.499
303.512
302.651
301.977
301.488
301.148
300.917
300.762
300.656
300.581
300.525
300.479
300.44
300.405
300.372
300.341
300.31
300.281
300.254
300.227
300.202
300.178
300.154
300.132
300.11
300.089
300.066
300.043
300.017
299.985
299.945
299.89
299.811
299.691
299.503
299.202
298.723
297.986
296.945
295.665
304.519
303.571
302.738
302.082
301.602
301.267
301.04
300.887
300.783
300.71
300.654
300.608
300.568
300.53
300.494
300.458
300.423
300.389
300.356
300.324
300.294
300.264
300.236
300.209
300.183
300.158
300.133
300.107
300.079
300.048
300.008
299.956
299.882
299.77
299.593
299.305
298.835
298.094
297.025
295.694
304.541
303.632
302.83
302.195
301.727
301.399
301.178
301.03
300.93
300.86
300.806
300.761
300.719
300.68
300.64
300.601
300.561
300.522
300.483
300.445
300.409
300.373
300.339
300.307
300.275
300.245
300.216
300.186
300.156
300.122
300.083
300.032
299.962
299.858
299.691
299.417
298.957
298.213
297.115
295.727
304.564
303.697
302.929
302.316
301.863
301.546
301.332
301.19
301.096
301.031
300.98
300.937
300.896
300.856
300.814
300.771
300.727
300.683
300.638
300.594
300.551
300.508
300.468
300.429
300.391
300.355
300.319
300.285
300.25
300.213
300.172
300.123
300.056
299.958
299.802
299.541
299.094
298.347
297.216
295.764
304.588
303.766
303.034
302.448
302.013
301.708
301.503
301.369
301.283
301.223
301.177
301.137
301.098
301.058
301.015
300.97
300.922
300.873
300.823
300.773
300.723
300.673
300.625
300.579
300.534
300.491
300.449
300.408
300.368
300.326
300.282
300.231
300.166
300.073
299.928
299.68
299.245
298.496
297.331
295.807
304.613
303.839
303.147
302.589
302.175
301.885
301.691
301.567
301.488
301.436
301.395
301.359
301.324
301.285
301.242
301.196
301.145
301.092
301.037
300.982
300.925
300.869
300.814
300.76
300.708
300.657
300.607
300.559
300.512
300.465
300.415
300.361
300.296
300.207
300.069
299.834
299.412
298.662
297.461
295.856
304.64
303.917
303.268
302.743
302.351
302.077
301.896
301.782
301.713
301.667
301.632
301.602
301.57
301.534
301.493
301.446
301.394
301.339
301.28
301.22
301.158
301.096
301.034
300.973
300.913
300.854
300.797
300.74
300.685
300.631
300.575
300.516
300.448
300.36
300.228
300.005
299.596
298.846
297.607
295.911
304.668
303.999
303.398
302.907
302.541
302.286
302.119
302.015
301.955
301.916
301.887
301.862
301.835
301.802
301.762
301.717
301.665
301.608
301.547
301.483
301.417
301.35
301.283
301.215
301.148
301.082
301.016
300.952
300.888
300.825
300.762
300.696
300.623
300.533
300.405
300.191
299.794
299.047
297.769
295.975
304.698
304.087
303.536
303.083
302.745
302.51
302.357
302.265
302.214
302.18
302.157
302.137
302.114
302.084
302.047
302.002
301.951
301.894
301.832
301.766
301.697
301.627
301.555
301.482
301.409
301.336
301.263
301.191
301.119
301.047
300.974
300.9
300.82
300.725
300.597
300.39
300.006
299.263
297.946
296.045
304.729
304.179
303.682
303.27
302.963
302.75
302.612
302.531
302.487
302.459
302.44
302.423
302.402
302.374
302.339
302.296
302.246
302.189
302.126
302.059
301.989
301.916
301.842
301.765
301.688
301.609
301.53
301.451
301.371
301.29
301.208
301.124
301.035
300.933
300.801
300.599
300.227
299.493
298.138
296.124
304.761
304.276
303.835
303.468
303.194
303.005
302.883
302.812
302.773
302.747
302.73
302.714
302.694
302.666
302.631
302.588
302.538
302.481
302.419
302.352
302.282
302.208
302.132
302.053
301.973
301.89
301.807
301.721
301.634
301.546
301.455
301.361
301.261
301.149
301.011
300.81
300.45
299.727
298.34
296.209
304.794
304.376
303.995
303.677
303.439
303.275
303.168
303.104
303.067
303.042
303.023
303.004
302.98
302.95
302.913
302.868
302.817
302.76
302.698
302.632
302.561
302.487
302.411
302.331
302.249
302.164
302.077
301.988
301.896
301.8
301.701
301.598
301.487
301.365
301.218
301.014
300.664
299.957
298.548
296.299
304.828
304.48
304.162
303.897
303.694
303.556
303.46
303.401
303.361
303.332
303.306
303.28
303.249
303.213
303.171
303.123
303.069
303.011
302.948
302.882
302.812
302.738
302.661
302.582
302.499
302.413
302.324
302.232
302.136
302.035
301.929
301.817
301.697
301.564
301.408
301.201
300.86
300.174
298.752
296.39
304.862
304.584
304.33
304.117
303.951
303.833
303.746
303.686
303.639
303.6
303.562
303.524
303.483
303.438
303.389
303.336
303.279
303.218
303.154
303.087
303.017
302.943
302.867
302.787
302.704
302.618
302.528
302.433
302.334
302.229
302.118
301.998
301.869
301.727
301.562
301.351
301.019
300.354
298.93
296.474
304.893
304.679
304.485
304.319
304.184
304.08
303.996
303.928
303.87
303.817
303.766
303.714
303.661
303.607
303.551
303.492
303.431
303.367
303.301
303.233
303.162
303.088
303.012
302.932
302.848
302.761
302.669
302.573
302.47
302.362
302.245
302.12
301.983
301.831
301.657
301.44
301.115
300.475
299.06
296.538
304.916
304.751
304.6
304.467
304.352
304.254
304.168
304.092
304.022
303.956
303.892
303.83
303.768
303.706
303.644
303.58
303.516
303.45
303.382
303.312
303.24
303.165
303.087
303.006
302.921
302.832
302.738
302.639
302.533
302.42
302.298
302.166
302.022
301.861
301.678
301.452
301.124
300.499
299.107
296.566
304.926
304.783
304.652
304.532
304.424
304.326
304.237
304.155
304.078
304.005
303.935
303.868
303.802
303.737
303.672
303.606
303.54
303.472
303.403
303.332
303.258
303.182
303.103
303.02
302.934
302.843
302.746
302.644
302.535
302.417
302.291
302.153
302.002
301.834
301.64
301.398
301.045
300.396
299.027
296.542
303.401
300.836
299.452
298.816
298.477
298.245
298.059
297.897
297.753
297.621
297.501
297.389
297.285
297.188
297.096
297.009
296.926
296.847
296.772
296.699
296.628
296.56
296.493
296.428
296.364
296.301
296.237
296.174
296.11
296.044
295.976
295.906
295.831
295.751
295.665
295.57
295.464
295.346
295.215
295.073
303.362
300.724
299.319
298.722
298.414
298.201
298.026
297.873
297.736
297.611
297.495
297.388
297.287
297.193
297.104
297.019
296.938
296.861
296.786
296.715
296.645
296.578
296.513
296.449
296.387
296.326
296.265
296.205
296.145
296.085
296.024
295.962
295.896
295.824
295.742
295.648
295.535
295.403
295.252
295.085
303.383
300.756
299.332
298.726
298.424
298.222
298.058
297.914
297.785
297.666
297.555
297.452
297.355
297.263
297.175
297.092
297.012
296.936
296.862
296.792
296.723
296.658
296.594
296.533
296.474
296.417
296.363
296.311
296.262
296.214
296.167
296.12
296.068
296.008
295.932
295.832
295.699
295.53
295.33
295.11
303.448
300.885
299.452
298.822
298.517
298.322
298.167
298.032
297.91
297.797
297.691
297.592
297.497
297.407
297.32
297.238
297.158
297.082
297.008
296.938
296.87
296.805
296.743
296.684
296.63
296.579
296.533
296.491
296.454
296.421
296.391
296.359
296.322
296.272
296.194
296.083
295.917
295.698
295.433
295.142
303.539
301.074
299.64
298.987
298.674
298.483
298.337
298.211
298.097
297.991
297.89
297.794
297.702
297.613
297.528
297.446
297.366
297.289
297.215
297.144
297.076
297.012
296.951
296.894
296.843
296.797
296.758
296.726
296.7
296.68
296.663
296.643
296.615
296.569
296.484
296.353
296.15
295.875
295.543
295.178
303.64
301.298
299.872
299.192
298.869
298.681
298.544
298.429
298.324
298.225
298.131
298.039
297.951
297.864
297.781
297.699
297.62
297.543
297.468
297.396
297.328
297.263
297.202
297.147
297.098
297.056
297.021
296.995
296.977
296.965
296.955
296.941
296.916
296.867
296.771
296.616
296.377
296.049
295.651
295.213
303.739
301.524
300.118
299.417
299.082
298.896
298.768
298.664
298.569
298.479
298.392
298.306
298.223
298.14
298.059
297.979
297.901
297.825
297.75
297.678
297.609
297.544
297.483
297.427
297.379
297.338
297.305
297.282
297.267
297.258
297.25
297.235
297.21
297.153
297.044
296.865
296.592
296.215
295.756
295.248
303.834
301.746
300.37
299.652
299.302
299.115
298.994
298.898
298.814
298.733
298.655
298.577
298.499
298.422
298.345
298.269
298.194
298.119
298.046
297.974
297.905
297.84
297.778
297.722
297.673
297.631
297.598
297.574
297.558
297.548
297.538
297.52
297.49
297.424
297.3
297.098
296.794
296.373
295.856
295.281
303.921
301.957
300.618
299.887
299.522
299.329
299.21
299.122
299.046
298.975
298.905
298.836
298.766
298.695
298.624
298.553
298.482
298.41
298.34
298.27
298.202
298.137
298.076
298.019
297.969
297.925
297.89
297.863
297.844
297.83
297.816
297.792
297.755
297.678
297.54
297.318
296.984
296.523
295.951
295.313
303.999
302.151
300.851
300.11
299.731
299.53
299.411
299.327
299.258
299.195
299.134
299.073
299.011
298.948
298.884
298.819
298.753
298.687
298.621
298.554
298.489
298.426
298.365
298.309
298.257
298.212
298.174
298.143
298.12
298.101
298.081
298.05
298.004
297.916
297.764
297.522
297.162
296.664
296.041
295.343
304.068
302.328
301.068
300.322
299.928
299.717
299.593
299.511
299.446
299.39
299.336
299.283
299.229
299.174
299.118
299.06
299.001
298.941
298.879
298.818
298.757
298.697
298.638
298.583
298.532
298.485
298.445
298.411
298.382
298.357
298.33
298.292
298.236
298.137
297.971
297.711
297.327
296.795
296.125
295.372
304.129
302.486
301.267
300.519
300.108
299.885
299.755
299.671
299.609
299.557
299.509
299.463
299.417
299.37
299.321
299.271
299.219
299.165
299.111
299.055
298.999
298.944
298.889
298.836
298.786
298.739
298.697
298.66
298.628
298.597
298.562
298.518
298.451
298.341
298.163
297.887
297.481
296.918
296.204
295.399
304.182
302.628
301.447
300.699
300.273
300.036
299.897
299.809
299.746
299.697
299.654
299.614
299.574
299.534
299.492
299.449
299.405
299.359
299.311
299.262
299.212
299.162
299.112
299.063
299.015
298.97
298.928
298.889
298.853
298.817
298.776
298.725
298.649
298.529