/*--------------------------------*- C++ -*----------------------------------*\
  =========                 |
  \\      /  F ield         | OpenFOAM: The Open Source CFD Toolbox
   \\    /   O peration     | Website:  https://openfoam.org
    \\  /    A nd           | Version:  12
     \\/     M anipulation  |
\*---------------------------------------------------------------------------*/
FoamFile
{
    format      ascii;
    class       volVectorField;
    location    "400";
    object      U;
}
// * * * * * * * * * * * * * * * * * * * * * * * * * * * * * * * * * * * * * //

dimensions      [0 1 -1 0 0 0 0];

internalField   nonuniform List<vector> 
8000
(
(-0.00172484 0.00177448 -0.000261698)
(-0.00450374 0.000757461 -0.000356773)
(-0.00508271 0.00016692 -0.000186195)
(-0.00507726 -4.92187e-05 -9.54096e-05)
(-0.00487683 -5.70367e-05 -4.49506e-05)
(-0.00477856 -3.46244e-05 -3.08029e-05)
(-0.00470672 -1.36265e-05 -2.43166e-05)
(-0.00466542 -1.97048e-06 -2.19361e-05)
(-0.00463229 4.42504e-06 -1.97684e-05)
(-0.00460369 6.86376e-06 -1.92608e-05)
(-0.0045738 7.47455e-06 -1.8244e-05)
(-0.00454207 6.89959e-06 -1.78745e-05)
(-0.00450666 6.2205e-06 -1.71067e-05)
(-0.00446943 5.41002e-06 -1.64748e-05)
(-0.00442919 4.46079e-06 -1.59122e-05)
(-0.00438659 3.42871e-06 -1.5205e-05)
(-0.00434234 2.35352e-06 -1.44198e-05)
(-0.00429696 1.14971e-06 -1.35659e-05)
(-0.00425132 -4.7523e-08 -1.2579e-05)
(-0.00420696 -1.11438e-06 -1.14699e-05)
(-0.00416529 -1.85796e-06 -1.03276e-05)
(-0.00413053 -1.35486e-06 -8.79664e-06)
(-0.00410508 3.10837e-07 -7.94191e-06)
(-0.00409377 3.22979e-06 -5.38807e-06)
(-0.00410142 6.49888e-06 -4.03129e-06)
(-0.0041334 1.29649e-05 -3.43023e-06)
(-0.00419357 2.20514e-05 -3.53958e-06)
(-0.00428653 3.4416e-05 -5.04708e-06)
(-0.00441319 4.98962e-05 -8.53115e-06)
(-0.00457005 6.76504e-05 -1.45948e-05)
(-0.00474452 8.89657e-05 -2.38916e-05)
(-0.00491895 9.86956e-05 -3.49953e-05)
(-0.00503001 0.000102271 -5.65567e-05)
(-0.00502118 8.78681e-05 -8.28051e-05)
(-0.00481508 5.17138e-05 -0.000107974)
(-0.00434049 -1.81589e-05 -0.000135513)
(-0.00354728 -0.000100948 -0.000149233)
(-0.00249415 -0.000186856 -0.000142)
(-0.00128719 -0.000250831 -0.000104567)
(-0.000272265 -0.000239433 -5.12442e-05)
(-0.00134481 0.00584034 -0.000291729)
(-0.00445424 0.00374827 -0.000416647)
(-0.00600865 0.00131621 -0.000188622)
(-0.0067995 0.000281328 -0.000117935)
(-0.00704653 6.35436e-05 -5.21656e-05)
(-0.00723765 3.6296e-05 -3.49759e-05)
(-0.00733083 4.04835e-05 -2.50928e-05)
(-0.00739623 3.80319e-05 -1.95708e-05)
(-0.00742969 3.07569e-05 -1.4527e-05)
(-0.00744004 2.3823e-05 -1.4506e-05)
(-0.00743057 1.56104e-05 -1.34138e-05)
(-0.00741269 7.2332e-06 -1.3618e-05)
(-0.0073819 -1.13374e-06 -1.29256e-05)
(-0.00734408 -8.74421e-06 -1.22558e-05)
(-0.00729815 -1.62243e-05 -1.19023e-05)
(-0.00724596 -2.2707e-05 -1.12524e-05)
(-0.00718957 -2.79062e-05 -1.05429e-05)
(-0.00713064 -3.18701e-05 -9.95079e-06)
(-0.00707109 -3.38489e-05 -9.31253e-06)
(-0.00701403 -3.31688e-05 -8.70308e-06)
(-0.00696194 -2.85646e-05 -8.3802e-06)
(-0.00692183 -1.82353e-05 -6.80811e-06)
(-0.00689699 -3.58299e-06 -4.69261e-06)
(-0.00689296 1.72745e-05 -1.775e-06)
(-0.00692076 5.01282e-05 -1.99406e-06)
(-0.00698222 9.25416e-05 -1.24371e-06)
(-0.00708445 0.000143581 -1.35771e-06)
(-0.00722797 0.000201978 -2.40939e-06)
(-0.00740902 0.000262384 -4.99931e-06)
(-0.00761192 0.000318119 -1.00868e-05)
(-0.00782357 0.000347964 -8.04386e-06)
(-0.00799111 0.000325055 -2.70048e-05)
(-0.00804129 0.000242447 -4.65371e-05)
(-0.0078767 4.21282e-05 -7.64887e-05)
(-0.00741719 -0.000237869 -0.00011277)
(-0.00655251 -0.00064133 -0.000160058)
(-0.00523662 -0.00105229 -0.000188151)
(-0.00358549 -0.00139678 -0.000190313)
(-0.00177543 -0.00152056 -0.000146415)
(-0.000298054 -0.00107685 -7.24546e-05)
(-0.000726386 0.00926957 -0.000334906)
(-0.00344122 0.00681761 -0.000363111)
(-0.00503455 0.0033366 -0.000138376)
(-0.00635506 0.00131388 -0.000116267)
(-0.00697082 0.000604717 -4.14627e-05)
(-0.00739815 0.000368544 -2.36962e-05)
(-0.00764994 0.000251469 -1.1792e-05)
(-0.00782637 0.000176294 -8.40629e-06)
(-0.00793844 0.000119481 -7.14116e-06)
(-0.00801226 7.71574e-05 -5.04304e-06)
(-0.00805645 4.40138e-05 -3.26242e-06)
(-0.00807351 2.05836e-05 -4.46208e-06)
(-0.00807028 -2.26052e-06 -4.66288e-06)
(-0.00805765 -2.02579e-05 -3.911e-06)
(-0.00803326 -3.70627e-05 -4.91422e-06)
(-0.00799945 -5.12087e-05 -4.92477e-06)
(-0.00795993 -6.17118e-05 -4.64068e-06)
(-0.00791655 -6.87899e-05 -4.53214e-06)
(-0.00787114 -7.12055e-05 -4.25758e-06)
(-0.00782701 -6.75808e-05 -4.02039e-06)
(-0.00778666 -5.55132e-05 -4.01158e-06)
(-0.00775781 -3.43096e-05 -2.67807e-06)
(-0.0077413 -7.6175e-06 -1.1471e-06)
(-0.00774408 4.18427e-05 2.02392e-07)
(-0.00777886 0.000105485 -4.24816e-07)
(-0.00783981 0.000183727 1.92821e-07)
(-0.0079363 0.000273677 2.47182e-07)
(-0.00806413 0.000368344 -1.00242e-07)
(-0.00821436 0.000457018 -1.55994e-06)
(-0.00837751 0.000518302 4.37888e-06)
(-0.00853636 0.000519118 7.50457e-06)
(-0.00862101 0.000434647 -8.3398e-06)
(-0.00860479 0.000216727 -1.39439e-05)
(-0.00835907 -0.000192519 -4.70048e-05)
(-0.00784059 -0.000729884 -6.91105e-05)
(-0.00691326 -0.0014823 -0.000139574)
(-0.00548653 -0.00222533 -0.00016927)
(-0.00373989 -0.00281138 -0.000177938)
(-0.00184558 -0.00297095 -0.000140056)
(-0.000294018 -0.00201183 -6.71646e-05)
(-0.000318909 0.0117678 -0.000318409)
(-0.00245757 0.0096259 -0.00025944)
(-0.00412077 0.00504171 -0.000159891)
(-0.00531939 0.00258695 -5.78622e-05)
(-0.00623677 0.00131588 -2.08468e-05)
(-0.00677203 0.000795758 -3.45275e-06)
(-0.00711995 0.000531662 1.46693e-06)
(-0.0073674 0.000367722 2.93192e-06)
(-0.00754188 0.000253544 3.07386e-06)
(-0.00766851 0.000168644 2.91982e-06)
(-0.00775758 0.000103344 1.45898e-06)
(-0.00781721 5.30741e-05 2.74339e-07)
(-0.0078558 1.26709e-05 1.73246e-06)
(-0.00787905 -2.01691e-05 2.28121e-06)
(-0.00788472 -4.59247e-05 5.5415e-07)
(-0.00787677 -6.84011e-05 -4.68392e-07)
(-0.0078626 -8.4025e-05 3.02014e-08)
(-0.00784322 -9.48749e-05 -4.70926e-07)
(-0.00781961 -9.91497e-05 -8.16005e-07)
(-0.00779428 -9.41408e-05 -1.45311e-06)
(-0.00777 -7.66598e-05 -1.80081e-06)
(-0.00774953 -4.66558e-05 -2.77119e-06)
(-0.00774005 -1.013e-05 1.43002e-06)
(-0.00774793 6.20653e-05 -2.31887e-07)
(-0.00777095 0.000149325 -4.44247e-07)
(-0.00781398 0.000253962 -5.51635e-08)
(-0.00788201 0.000370387 6.57982e-07)
(-0.00797027 0.000486012 1.14965e-06)
(-0.00807614 0.000582392 5.64015e-06)
(-0.00819281 0.000630342 1.66729e-05)
(-0.00830089 0.000593506 1.22554e-05)
(-0.0083347 0.000447312 1.38898e-05)
(-0.00831634 0.000112415 8.29596e-06)
(-0.00806912 -0.000492575 -3.44999e-05)
(-0.0076068 -0.00129931 -1.25397e-05)
(-0.00675637 -0.00237326 -0.000111343)
(-0.00540135 -0.00348322 -0.000132141)
(-0.00370579 -0.00426459 -0.000148411)
(-0.00185918 -0.00445544 -0.000126137)
(-0.000297483 -0.00296694 -6.09048e-05)
(-8.06764e-05 0.0134959 -0.000246614)
(-0.00162258 0.0119237 -0.000170332)
(-0.00322915 0.00681054 -8.90549e-05)
(-0.00437157 0.00373583 7.05644e-06)
(-0.00527148 0.00211314 1.5162e-05)
(-0.00590274 0.0012657 1.74091e-05)
(-0.00629282 0.000846501 1.42795e-05)
(-0.00658185 0.000590817 1.17507e-05)
(-0.00679426 0.000415773 1.00275e-05)
(-0.00695667 0.000288489 8.70267e-06)
(-0.00708096 0.000192957 7.41638e-06)
(-0.00717581 0.00011808 6.35615e-06)
(-0.00724811 5.70907e-05 5.80822e-06)
(-0.0073016 7.46378e-06 3.90744e-06)
(-0.00733819 -3.2737e-05 2.83818e-06)
(-0.00736267 -6.49042e-05 2.61587e-06)
(-0.00737764 -8.9361e-05 3.26721e-06)
(-0.00738284 -0.000104085 2.20253e-06)
(-0.00738036 -0.000111045 8.12842e-07)
(-0.00737381 -0.00010583 -6.48379e-07)
(-0.00736456 -8.71576e-05 -9.59383e-07)
(-0.00735458 -5.45501e-05 -6.76276e-07)
(-0.00735333 -6.4923e-06 2.33941e-07)
(-0.00736116 7.82638e-05 -2.08427e-06)
(-0.00737064 0.000176087 -2.47269e-06)
(-0.00739064 0.000297165 -1.88055e-06)
(-0.00742528 0.000426329 6.34619e-07)
(-0.0074737 0.000551476 4.71103e-06)
(-0.0075377 0.000644753 1.43614e-05)
(-0.00761669 0.000680586 2.19127e-05)
(-0.00767295 0.000612152 2.03168e-05)
(-0.00768834 0.000383584 2.98516e-05)
(-0.00770583 -3.57403e-05 5.86839e-05)
(-0.00756105 -0.000809832 1.1136e-05)
(-0.0071805 -0.00184129 -8.68756e-06)
(-0.00643496 -0.00321899 -5.7193e-05)
(-0.00524202 -0.00465826 -0.000153226)
(-0.00360263 -0.00572911 -0.000101489)
(-0.00186771 -0.0059388 -0.000108278)
(-0.000309162 -0.00394725 -5.63746e-05)
(4.83983e-05 0.0145781 -0.000183176)
(-0.00101109 0.0136932 -0.000111633)
(-0.00246937 0.00833178 -1.11057e-06)
(-0.00366036 0.00461393 -1.09614e-05)
(-0.00435512 0.00284209 2.21701e-05)
(-0.00499864 0.00173203 2.62068e-05)
(-0.00542187 0.00116661 2.15651e-05)
(-0.00572416 0.000823593 1.78306e-05)
(-0.00595315 0.000592331 1.46835e-05)
(-0.00613298 0.000424498 1.22807e-05)
(-0.00627658 0.000298537 1.03815e-05)
(-0.00639241 0.000199916 8.91671e-06)
(-0.00648669 0.000121293 7.9142e-06)
(-0.00656329 5.7727e-05 6.74632e-06)
(-0.00662446 5.59282e-06 5.81752e-06)
(-0.00667349 -3.73693e-05 5.26105e-06)
(-0.00671179 -7.12274e-05 4.08386e-06)
(-0.00674021 -9.42247e-05 3.03773e-06)
(-0.00675987 -0.000105434 1.81744e-06)
(-0.00677205 -0.000103456 6.22784e-07)
(-0.00677713 -8.73004e-05 -7.03847e-07)
(-0.00678 -5.31302e-05 3.03907e-07)
(-0.006785 2.83274e-06 -1.67167e-06)
(-0.00679218 8.91325e-05 -1.28344e-06)
(-0.00679233 0.00019154 -4.3616e-06)
(-0.00679226 0.000315425 -2.41919e-06)
(-0.00680234 0.000448955 3.44954e-07)
(-0.0068219 0.000572062 5.96508e-06)
(-0.00685435 0.000659193 1.49206e-05)
(-0.00689786 0.000678427 2.17398e-05)
(-0.00691837 0.000575067 2.54773e-05)
(-0.00697275 0.000303907 5.79314e-05)
(-0.00700575 -0.000182895 6.27861e-05)
(-0.00692229 -0.00109615 7.72874e-05)
(-0.00661405 -0.00237632 7.13931e-06)
(-0.00606272 -0.00399168 1.82831e-05)
(-0.00494493 -0.00580801 -0.000133554)
(-0.00355633 -0.00708351 -0.000101424)
(-0.00182711 -0.0074276 -7.96754e-05)
(-0.000328769 -0.00494473 -5.50308e-05)
(0.000115037 0.0152313 -0.000136111)
(-0.000598981 0.0150498 -7.06212e-05)
(-0.00184993 0.00962748 6.89315e-06)
(-0.00297858 0.00559397 2.33764e-05)
(-0.0036984 0.00337307 3.14071e-05)
(-0.00418497 0.00223508 3.03839e-05)
(-0.00460769 0.00148356 2.79798e-05)
(-0.00491119 0.00105237 2.14072e-05)
(-0.00513544 0.000767516 1.7565e-05)
(-0.00531487 0.00056426 1.43136e-05)
(-0.00546204 0.000412699 1.21203e-05)
(-0.00558557 0.000293769 1.02956e-05)
(-0.00569026 0.000199189 8.95834e-06)
(-0.00577994 0.000121949 7.67352e-06)
(-0.00585652 5.85595e-05 6.63516e-06)
(-0.00592248 6.36297e-06 5.73113e-06)
(-0.00597885 -3.46687e-05 4.73108e-06)
(-0.0060261 -6.44274e-05 3.64567e-06)
(-0.00606439 -8.20471e-05 2.4416e-06)
(-0.00609414 -8.57539e-05 1.18835e-06)
(-0.00611571 -7.31882e-05 -1.25973e-07)
(-0.00613147 -4.16673e-05 -9.48874e-07)
(-0.00614203 1.54075e-05 -2.36513e-06)
(-0.00614943 0.000100051 -1.80756e-06)
(-0.00615009 0.000190817 -2.63611e-06)
(-0.00614006 0.000322062 -4.67059e-06)
(-0.00613133 0.000444597 9.7311e-08)
(-0.00613251 0.000568808 6.23135e-06)
(-0.00614213 0.00064728 1.46669e-05)
(-0.00616403 0.000645141 2.43783e-05)
(-0.00616834 0.000529603 2.86723e-05)
(-0.00624275 0.000247681 7.68021e-05)
(-0.00627165 -0.000398187 5.5765e-05)
(-0.00619404 -0.00142247 7.81131e-05)
(-0.00599442 -0.00284082 5.35451e-05)
(-0.00557201 -0.00475241 3.53224e-05)
(-0.00467857 -0.00679782 -6.64282e-05)
(-0.00339625 -0.00839826 -7.43062e-05)
(-0.00180609 -0.00889282 -5.7554e-05)
(-0.000332955 -0.00594991 -5.22468e-05)
(0.000158608 0.0155881 -0.000100652)
(-0.000301169 0.0160782 -3.13889e-05)
(-0.00135672 0.010744 3.52778e-05)
(-0.0023845 0.00642765 6.72009e-05)
(-0.00313407 0.00390657 5.95739e-05)
(-0.00360845 0.00251732 3.08227e-05)
(-0.00390083 0.00178655 2.82597e-05)
(-0.00418446 0.0012584 2.42008e-05)
(-0.00439463 0.00092646 1.87036e-05)
(-0.00455794 0.000693261 1.50364e-05)
(-0.0046949 0.000521868 1.27128e-05)
(-0.00481315 0.000387482 1.06209e-05)
(-0.00491627 0.00028138 9.24767e-06)
(-0.00500851 0.000194368 7.95501e-06)
(-0.00509098 0.000122918 6.93516e-06)
(-0.0051657 6.36962e-05 5.95169e-06)
(-0.00523291 1.61626e-05 4.95019e-06)
(-0.00529279 -1.98489e-05 3.89869e-06)
(-0.00534503 -4.34097e-05 2.75708e-06)
(-0.00538938 -5.28328e-05 1.5245e-06)
(-0.00542536 -4.55448e-05 1.78237e-07)
(-0.0054533 -1.85156e-05 -1.06098e-06)
(-0.00547279 3.30608e-05 -2.53819e-06)
(-0.00547884 0.000110171 -3.78779e-06)
(-0.00548521 0.000195524 4.55154e-08)
(-0.00547809 0.000313468 -4.03839e-06)
(-0.00545887 0.000436879 5.60017e-07)
(-0.00544987 0.000547579 5.45134e-06)
(-0.00544136 0.000613666 1.35026e-05)
(-0.00544872 0.000596857 2.53015e-05)
(-0.00544836 0.000462172 3.5346e-05)
(-0.00548177 0.000139235 5.87193e-05)
(-0.00550178 -0.000558987 7.61751e-05)
(-0.00548296 -0.00168902 8.9082e-05)
(-0.00535106 -0.00327585 8.03008e-05)
(-0.00504331 -0.00539517 6.49275e-05)
(-0.00436941 -0.00773525 -2.38523e-05)
(-0.00318512 -0.00969543 -5.59694e-05)
(-0.00173744 -0.0102977 -3.85368e-05)
(-0.000331626 -0.00694766 -4.61553e-05)
(0.000180783 0.0157327 -7.49557e-05)
(-9.74129e-05 0.0168266 -6.71444e-06)
(-0.000986759 0.0116493 4.65954e-05)
(-0.00191509 0.00714351 7.22544e-05)
(-0.00261492 0.00439418 4.93696e-05)
(-0.00307076 0.00286365 3.33519e-05)
(-0.00336605 0.00195967 2.19337e-05)
(-0.00355543 0.00145343 2.02108e-05)
(-0.00374272 0.00106442 1.85906e-05)
(-0.00388587 0.000803181 1.44985e-05)
(-0.00400265 0.000618117 1.24139e-05)
(-0.00410565 0.000472099 1.01817e-05)
(-0.00419697 0.000358495 8.9743e-06)
(-0.00428199 0.000265378 7.64803e-06)
(-0.00436074 0.000189331 6.71325e-06)
(-0.00443534 0.000126023 5.76318e-06)
(-0.00450541 7.4617e-05 4.87383e-06)
(-0.00457098 3.44495e-05 3.91957e-06)
(-0.0046312 6.36255e-06 2.89531e-06)
(-0.00468528 -8.09488e-06 1.76747e-06)
(-0.004732 -6.43488e-06 5.30197e-07)
(-0.00477019 1.41471e-05 -7.39402e-07)
(-0.00479888 5.70695e-05 -1.99248e-06)
(-0.00481186 0.000123065 -3.63658e-06)
(-0.0048212 0.000206196 -1.10741e-06)
(-0.00481996 0.000300221 -1.38045e-06)
(-0.00480169 0.00041791 1.48469e-07)
(-0.00478276 0.000519227 4.81343e-06)
(-0.00476389 0.000573626 1.24086e-05)
(-0.00475581 0.000537956 2.46753e-05)
(-0.00474827 0.000365643 3.78775e-05)
(-0.00475763 4.02616e-05 5.35599e-05)
(-0.00476519 -0.000742191 7.92969e-05)
(-0.00476832 -0.00194504 9.37149e-05)
(-0.00469172 -0.00366246 9.75238e-05)
(-0.00447174 -0.0059657 8.39852e-05)
(-0.0039777 -0.00857918 2.54723e-05)
(-0.00296587 -0.0108745 -4.35896e-05)
(-0.00165156 -0.0116259 -2.61466e-05)
(-0.000325803 -0.00791791 -3.94071e-05)
(0.000182369 0.0157357 -5.7746e-05)
(2.51901e-05 0.0173842 3.86779e-06)
(-0.000730984 0.0124186 4.3176e-05)
(-0.00155588 0.00779708 5.39664e-05)
(-0.00220157 0.00484036 4.31921e-05)
(-0.00261915 0.00314135 4.52842e-05)
(-0.00291093 0.00215565 3.0736e-05)
(-0.00308267 0.00155089 1.80963e-05)
(-0.00319821 0.00118232 1.55485e-05)
(-0.00330793 0.000891898 1.26478e-05)
(-0.00339805 0.00069031 1.27308e-05)
(-0.00348026 0.000538433 9.43596e-06)
(-0.0035513 0.000422331 8.4035e-06)
(-0.00362077 0.000327031 6.98338e-06)
(-0.00368732 0.000250043 6.22381e-06)
(-0.00375364 0.000185896 5.33378e-06)
(-0.00381861 0.000133571 4.58454e-06)
(-0.00388239 9.18879e-05 3.76169e-06)
(-0.0039437 6.14606e-05 2.89876e-06)
(-0.00400139 4.3547e-05 1.93928e-06)
(-0.00405371 4.03617e-05 8.95587e-07)
(-0.00409876 5.44844e-05 -1.80253e-07)
(-0.0041346 8.85794e-05 -1.17399e-06)
(-0.00415793 0.000144463 -1.98682e-06)
(-0.00417027 0.000216356 -1.80071e-06)
(-0.00417351 0.000295777 -9.8838e-07)
(-0.00416203 0.000397809 3.32368e-07)
(-0.00413793 0.000482962 4.82624e-06)
(-0.00411358 0.000521447 1.20782e-05)
(-0.00408941 0.000466507 2.28546e-05)
(-0.00408023 0.000276414 3.73716e-05)
(-0.00407379 -8.83428e-05 4.9762e-05)
(-0.00406487 -0.00091429 7.94726e-05)
(-0.0040824 -0.00218147 9.50561e-05)
(-0.00404504 -0.00401114 0.000107362)
(-0.00389192 -0.00646206 9.72518e-05)
(-0.00356123 -0.00931913 6.64255e-05)
(-0.00271086 -0.0119408 -3.68529e-05)
(-0.00154678 -0.0128557 -2.1397e-05)
(-0.000310924 -0.0088519 -3.05867e-05)
(0.000177719 0.0156794 -4.81168e-05)
(0.000105617 0.0178046 1.17875e-05)
(-0.00053222 0.0130777 4.40244e-05)
(-0.00126399 0.00839776 5.65275e-05)
(-0.00187231 0.00525701 5.40161e-05)
(-0.00225836 0.00340479 3.6482e-05)
(-0.00251751 0.00231289 2.43295e-05)
(-0.00267273 0.00165711 2.12704e-05)
(-0.00276791 0.00123177 1.20605e-05)
(-0.00283169 0.000944396 1.23958e-05)
(-0.0028881 0.000745503 8.76962e-06)
(-0.00293843 0.000585059 7.39502e-06)
(-0.00298682 0.000465952 7.82699e-06)
(-0.00303644 0.00037207 6.08076e-06)
(-0.0030846 0.000297897 5.51921e-06)
(-0.00313602 0.000236085 4.67954e-06)
(-0.00318894 0.000185877 4.10919e-06)
(-0.00324396 0.000145536 3.4283e-06)
(-0.00329947 0.000115355 2.74598e-06)
(-0.00335426 9.61978e-05 1.97474e-06)
(-0.00340628 8.98862e-05 1.13905e-06)
(-0.00345333 9.86333e-05 2.72698e-07)
(-0.00349281 0.000124642 -5.3451e-07)
(-0.00352207 0.000169462 -1.04942e-06)
(-0.00353876 0.000229698 -1.22255e-06)
(-0.0035461 0.000298938 -1.70953e-07)
(-0.00353972 0.000377232 6.63285e-07)
(-0.00351563 0.000445176 4.84373e-06)
(-0.00349011 0.000465098 1.17099e-05)
(-0.00345074 0.00039105 1.94735e-05)
(-0.00344886 0.000178883 4.23031e-05)
(-0.0034368 -0.000218503 4.24352e-05)
(-0.00341076 -0.00107912 7.5198e-05)
(-0.00344102 -0.0023944 9.13868e-05)
(-0.00343274 -0.00431453 0.000105222)
(-0.00333624 -0.00689196 0.000102395)
(-0.00311518 -0.0099646 8.83387e-05)
(-0.00243588 -0.0128773 -9.2423e-06)
(-0.00142887 -0.0139703 -1.29474e-05)
(-0.000296477 -0.00973457 -2.61927e-05)
(0.000163823 0.0155624 -3.54641e-05)
(0.000147208 0.018118 1.5423e-05)
(-0.000395119 0.0136373 3.78924e-05)
(-0.00105142 0.00893085 4.75357e-05)
(-0.00161218 0.00563462 3.99982e-05)
(-0.00199103 0.00362698 3.09877e-05)
(-0.0022089 0.00244925 2.66407e-05)
(-0.0023428 0.00172592 1.87821e-05)
(-0.00241166 0.00127477 1.48649e-05)
(-0.00245202 0.000967178 1.0436e-05)
(-0.00247329 0.000757362 6.87343e-06)
(-0.00248928 0.000602237 7.00626e-06)
(-0.00250962 0.000491725 5.51781e-06)
(-0.00253239 0.000398987 4.37297e-06)
(-0.00255905 0.000327901 4.7586e-06)
(-0.0025917 0.000271018 3.86667e-06)
(-0.00262749 0.000225616 3.48512e-06)
(-0.00266812 0.000189263 2.92999e-06)
(-0.00271183 0.000161845 2.43394e-06)
(-0.00275758 0.000143855 1.85364e-06)
(-0.00280327 0.000136671 1.23109e-06)
(-0.00284666 0.000142043 5.89932e-07)
(-0.00288489 0.000161726 -1.0284e-08)
(-0.00291539 0.000196946 -3.10528e-07)
(-0.00293464 0.000245765 -5.88965e-07)
(-0.00294345 0.000300827 6.52425e-07)
(-0.00294001 0.000361087 1.13718e-06)
(-0.00291907 0.000408053 4.99616e-06)
(-0.00289426 0.000406007 1.16173e-05)
(-0.00285184 0.000312193 1.74479e-05)
(-0.00284691 0.000102412 3.91433e-05)
(-0.00282638 -0.000360436 4.12702e-05)
(-0.00280472 -0.00122864 6.9533e-05)
(-0.00284001 -0.00257611 8.74494e-05)
(-0.00286161 -0.00456475 0.000104294)
(-0.00282532 -0.00725556 0.000104949)
(-0.00266229 -0.0105249 8.34401e-05)
(-0.00214139 -0.0136842 1.82338e-05)
(-0.00130142 -0.014972 -3.33301e-06)
(-0.000280247 -0.0105544 -2.26252e-05)
(0.000146787 0.015428 -2.41223e-05)
(0.000165646 0.0183582 1.66475e-05)
(-0.000292299 0.0141276 3.3578e-05)
(-0.000876448 0.00942761 4.28889e-05)
(-0.00139366 0.00601165 3.82824e-05)
(-0.00175164 0.00386126 3.2229e-05)
(-0.0019644 0.0025632 2.30943e-05)
(-0.00207498 0.00177607 1.6468e-05)
(-0.00212168 0.00128445 1.20228e-05)
(-0.00213581 0.000963627 9.19255e-06)
(-0.00213296 0.000749212 7.22365e-06)
(-0.00212493 0.000595318 5.88485e-06)
(-0.00211643 0.000485412 3.97463e-06)
(-0.00211084 0.000400861 4.07265e-06)
(-0.00211402 0.000339713 3.27381e-06)
(-0.00212351 0.000288397 2.70939e-06)
(-0.00213939 0.000248705 2.80546e-06)
(-0.00216213 0.000218264 2.32499e-06)
(-0.00218979 0.000195703 2.00477e-06)
(-0.0022216 0.000181107 1.58073e-06)
(-0.0022557 0.000175281 1.14871e-06)
(-0.00229007 0.000179497 7.17567e-07)
(-0.00232187 0.00019499 3.14866e-07)
(-0.00234864 0.00022254 1.98251e-07)
(-0.00236624 0.000260605 -7.65321e-08)
(-0.00237406 0.000303223 1.12601e-06)
(-0.00237127 0.000346478 1.76334e-06)
(-0.00235302 0.000373134 5.26586e-06)
(-0.0023281 0.000350178 1.1123e-05)
(-0.0022942 0.000240271 1.7834e-05)
(-0.00227323 7.4362e-06 2.89518e-05)
(-0.00224545 -0.000481522 4.31439e-05)
(-0.00224164 -0.00136131 6.33265e-05)
(-0.00227779 -0.00273314 8.04476e-05)
(-0.0023159 -0.00476713 8.97584e-05)
(-0.0023307 -0.00755064 0.000102158)
(-0.00222946 -0.0109735 9.21867e-05)
(-0.00185567 -0.0143659 3.08165e-05)
(-0.00116388 -0.0158559 2.97319e-06)
(-0.000260925 -0.0113025 -2.01519e-05)
(0.00013036 0.015282 -1.90998e-05)
(0.000171423 0.0185405 1.50416e-05)
(-0.000216237 0.0145514 2.84396e-05)
(-0.000737209 0.00987517 3.67921e-05)
(-0.00121408 0.00635393 3.34742e-05)
(-0.00154909 0.00407153 2.79269e-05)
(-0.00175121 0.00266873 2.16231e-05)
(-0.00185156 0.00181157 1.49002e-05)
(-0.00188331 0.00128063 1.0711e-05)
(-0.00187908 0.000939777 7.76115e-06)
(-0.00185512 0.00071619 5.70487e-06)
(-0.00182409 0.000563513 4.55096e-06)
(-0.00179249 0.000458487 3.47491e-06)
(-0.00176549 0.000381425 3.35932e-06)
(-0.00174502 0.000326359 2.30897e-06)
(-0.00173063 0.000284398 2.26135e-06)
(-0.00172547 0.000253422 1.72118e-06)
(-0.00172772 0.000230521 1.58847e-06)
(-0.00173701 0.000213789 1.46832e-06)
(-0.00175183 0.00020396 1.20074e-06)
(-0.00177073 0.000201302 9.25242e-07)
(-0.00179186 0.000206422 6.7737e-07)
(-0.0018127 0.000219947 4.55466e-07)
(-0.00183114 0.000242002 5.31792e-07)
(-0.00184258 0.000271639 1.37569e-07)
(-0.00184619 0.000302692 1.40184e-06)
(-0.00184121 0.000331254 2.18016e-06)
(-0.0018232 0.000339272 5.27982e-06)
(-0.00179703 0.000297467 1.01819e-05)
(-0.00176724 0.000171316 1.70576e-05)
(-0.00174003 -7.89634e-05 2.49357e-05)
(-0.00171116 -0.000594081 4.00567e-05)
(-0.00171519 -0.00147767 5.72548e-05)
(-0.00175349 -0.00286351 7.44674e-05)
(-0.00181514 -0.00492399 8.88696e-05)
(-0.00185786 -0.00778332 9.33065e-05)
(-0.00182886 -0.0113314 8.57071e-05)
(-0.00157573 -0.0149225 3.78807e-05)
(-0.00102563 -0.0166189 6.88346e-06)
(-0.000239393 -0.0119736 -1.77467e-05)
(0.000116718 0.0151363 -1.51531e-05)
(0.00017348 0.0186809 1.39001e-05)
(-0.000154108 0.0149226 2.4562e-05)
(-0.000618467 0.0102854 3.23518e-05)
(-0.00105736 0.00667855 3.02559e-05)
(-0.00137525 0.00427581 2.63e-05)
(-0.00156074 0.00277621 1.79455e-05)
(-0.00165574 0.00184578 1.18774e-05)
(-0.00167864 0.00126746 9.12193e-06)
(-0.00166289 0.000902809 6.48806e-06)
(-0.00162428 0.000668484 4.66901e-06)
(-0.00157639 0.000514124 3.47545e-06)
(-0.00152656 0.000411623 2.53442e-06)
(-0.00148019 0.000341166 2.15798e-06)
(-0.00143974 0.000294054 1.62956e-06)
(-0.00140633 0.000260668 1.57065e-06)
(-0.00138098 0.000238342 1.02398e-06)
(-0.00136302 0.000223186 1.16777e-06)
(-0.00135275 0.000213952 9.89647e-07)
(-0.00134926 0.000210438 6.67415e-07)
(-0.00135102 0.000212147 5.30133e-07)
(-0.00135626 0.000219515 4.8179e-07)
(-0.00136308 0.000232838 4.54877e-07)
(-0.00136921 0.000251749 4.71863e-07)
(-0.00137089 0.000274861 3.07433e-07)
(-0.00136745 0.000297109 1.36487e-06)
(-0.00135629 0.000312801 2.40385e-06)
(-0.0013355 0.000304545 5.08983e-06)
(-0.00130533 0.000246689 8.87883e-06)
(-0.0012782 0.000105026 1.68566e-05)
(-0.00124827 -0.000162865 2.1235e-05)
(-0.00121913 -0.000689813 3.60586e-05)
(-0.00122866 -0.00157343 5.07877e-05)
(-0.00127381 -0.00296274 6.65632e-05)
(-0.00135684 -0.00503639 7.92579e-05)
(-0.00143549 -0.00793123 7.9206e-05)
(-0.00147839 -0.0115884 8.0181e-05)
(-0.00130979 -0.0153743 5.3369e-05)
(-0.000890943 -0.0172654 1.00794e-05)
(-0.000217137 -0.012568 -1.58346e-05)
(0.000106513 0.0149922 -1.25645e-05)
(0.000177338 0.0187861 1.25849e-05)
(-9.75243e-05 0.0152468 2.16179e-05)
(-0.000511396 0.010659 2.89456e-05)
(-0.000917101 0.00698362 2.75339e-05)
(-0.00121682 0.00447175 2.23885e-05)
(-0.00140163 0.00286931 1.68311e-05)
(-0.00148191 0.00187278 1.36063e-05)
(-0.00150104 0.00124787 8.89874e-06)
(-0.00147571 0.00085639 6.05537e-06)
(-0.00142685 0.000609032 4.01844e-06)
(-0.00136677 0.000451255 2.74287e-06)
(-0.00130362 0.000350599 1.85076e-06)
(-0.00124267 0.000285752 1.37513e-06)
(-0.00118666 0.00024522 9.38282e-07)
(-0.00113707 0.000219812 7.80218e-07)
(-0.00109477 0.000205568 5.27723e-07)
(-0.00105963 0.000198136 4.94459e-07)
(-0.00103197 0.000196456 4.05111e-07)
(-0.00101071 0.000199539 2.84496e-07)
(-0.000994939 0.000206394 2.36652e-07)
(-0.000983464 0.000217013 1.97737e-07)
(-0.000974554 0.000231416 1.93153e-07)
(-0.00096609 0.000248909 2.21951e-07)
(-0.0009556 0.00026791 5.82085e-07)
(-0.000941573 0.00028316 1.21612e-06)
(-0.000921376 0.000287899 2.30879e-06)
(-0.000894809 0.000266532 4.69117e-06)
(-0.000860346 0.000195779 7.65143e-06)
(-0.00083094 4.6199e-05 1.44418e-05)
(-0.000796626 -0.000243188 1.8995e-05)
(-0.000770428 -0.000773682 3.13513e-05)
(-0.000778094 -0.00165239 4.43324e-05)
(-0.000832599 -0.00303522 5.94467e-05)
(-0.000927827 -0.0051114 7.21084e-05)
(-0.00103089 -0.00802762 7.80127e-05)
(-0.00111877 -0.011769 7.3317e-05)
(-0.00105922 -0.015711 4.83186e-05)
(-0.00075513 -0.017788 8.24876e-06)
(-0.000194622 -0.0130797 -1.55161e-05)
(0.000100679 0.0148474 -1.09603e-05)
(0.000188581 0.018858 1.18064e-05)
(-3.63427e-05 0.0155257 2.05963e-05)
(-0.000401958 0.0109962 2.82342e-05)
(-0.000773279 0.00726816 2.80181e-05)
(-0.00105541 0.00466194 2.41671e-05)
(-0.00123249 0.00296525 1.92144e-05)
(-0.00131484 0.00189204 1.3535e-05)
(-0.0013298 0.00122188 9.03511e-06)
(-0.00130088 0.000803104 5.89949e-06)
(-0.00124674 0.00054193 3.71303e-06)
(-0.00117985 0.000379365 2.30496e-06)
(-0.00110854 0.000279363 1.36677e-06)
(-0.00103806 0.000218821 8.15958e-07)
(-0.000971338 0.000184165 4.23341e-07)
(-0.000910009 0.000165796 2.31269e-07)
(-0.000854882 0.000158606 5.34292e-08)
(-0.000806091 0.000158447 5.69557e-09)
(-0.00076382 0.00016351 -5.06595e-08)
(-0.000727244 0.000172471 -9.95142e-08)
(-0.000695704 0.000184305 -1.0797e-07)
(-0.000668312 0.000198612 -9.15415e-08)
(-0.000643736 0.000214895 -3.20813e-08)
(-0.000620315 0.000232098 9.28944e-08)
(-0.000596053 0.000248015 3.8238e-07)
(-0.000569418 0.000258056 9.94924e-07)
(-0.000538677 0.000254718 2.06542e-06)
(-0.000503425 0.000223394 4.06518e-06)
(-0.000464977 0.00014301 7.39179e-06)
(-0.000427905 -1.90422e-05 1.17311e-05)
(-0.000390626 -0.000318375 1.85143e-05)
(-0.000369415 -0.000845818 2.83093e-05)
(-0.000386745 -0.00170814 3.66814e-05)
(-0.00043853 -0.00307369 4.90166e-05)
(-0.000553587 -0.00513703 6.34445e-05)
(-0.000718757 -0.00806628 6.71801e-05)
(-0.000814347 -0.0118558 5.45608e-05)
(-0.000847754 -0.0159309 4.55329e-05)
(-0.000632372 -0.0182179 2.15793e-05)
(-0.000176808 -0.0135232 -1.25317e-05)
(9.89193e-05 0.0146951 -1.01632e-05)
(0.000214033 0.0188959 1.0817e-05)
(3.57543e-05 0.0157595 2.08949e-05)
(-0.00028375 0.0112926 2.91237e-05)
(-0.000622221 0.00752421 2.96707e-05)
(-0.00088751 0.0048328 2.5941e-05)
(-0.00105704 0.00305 2.03815e-05)
(-0.00113879 0.00191066 1.46668e-05)
(-0.00115429 0.00119428 9.83394e-06)
(-0.00112546 0.000747585 6.31383e-06)
(-0.00107028 0.000471544 3.83847e-06)
(-0.00100121 0.000303087 2.21767e-06)
(-0.000926629 0.000202697 1.15888e-06)
(-0.000851666 0.000145212 5.10774e-07)
(-0.000779272 0.000115268 9.23168e-08)
(-0.000711051 0.000102655 -1.39669e-07)
(-0.000647771 0.000101423 -2.98559e-07)
(-0.000589629 0.000107313 -3.65427e-07)
(-0.000536655 0.000118042 -4.07555e-07)
(-0.000488276 0.00013203 -4.25986e-07)
(-0.000443964 0.000148158 -4.14662e-07)
(-0.000402998 0.000165727 -3.80416e-07)
(-0.000364369 0.000183901 -3.07946e-07)
(-0.000326797 0.0002013 -1.69994e-07)
(-0.000288954 0.000215465 9.7988e-08)
(-0.000249676 0.000221795 6.2115e-07)
(-0.000208011 0.000212758 1.53866e-06)
(-0.00016384 0.000175007 3.00814e-06)
(-0.000119317 8.85729e-05 5.44391e-06)
(-7.70362e-05 -7.91554e-05 8.34359e-06)
(-4.03654e-05 -0.000381984 1.35988e-05)
(-2.26077e-05 -0.000901389 2.16127e-05)
(-3.78974e-05 -0.00175017 3.43758e-05)
(-0.000102954 -0.00309109 4.66358e-05)
(-0.000217757 -0.0051251 5.61654e-05)
(-0.000383343 -0.00804694 6.29009e-05)
(-0.000573545 -0.0118761 5.58491e-05)
(-0.000622986 -0.0160809 3.564e-05)
(-0.000520998 -0.0185455 8.41705e-06)
(-0.000151638 -0.0138944 -1.43303e-05)
(0.000102146 0.0145288 -1.00522e-05)
(0.000243629 0.0188913 9.99971e-06)
(0.000122535 0.0159427 2.29093e-05)
(-0.000151185 0.0115462 3.17959e-05)
(-0.000455842 0.00775131 3.31931e-05)
(-0.000703916 0.0049879 2.94061e-05)
(-0.000866715 0.00312844 2.32886e-05)
(-0.000947812 0.00192603 1.68557e-05)
(-0.000964854 0.00116543 1.13737e-05)
(-0.0009382 0.000691511 7.28119e-06)
(-0.000884999 0.000400689 4.38069e-06)
(-0.000817491 0.000226024 2.46541e-06)
(-0.000743937 0.000124655 1.22459e-06)
(-0.000669166 6.93332e-05 4.41887e-07)
(-0.000595953 4.31374e-05 -5.13471e-08)
(-0.000525721 3.5104e-05 -3.5078e-07)
(-0.000459143 3.85549e-05 -5.26613e-07)
(-0.000396367 4.90769e-05 -6.0457e-07)
(-0.000337268 6.40504e-05 -6.4389e-07)
(-0.000281334 8.17266e-05 -6.5069e-07)
(-0.000228077 0.00010095 -6.35647e-07)
(-0.000176861 0.000120749 -5.79149e-07)
(-0.000126979 0.000139984 -4.59731e-07)
(-7.74844e-05 0.000157235 -2.57586e-07)
(-2.75612e-05 0.000170113 1.12799e-09)
(2.34689e-05 0.000174088 3.86424e-07)
(7.62114e-05 0.000161554 1.10452e-06)
(0.000130442 0.00012018 2.31307e-06)
(0.00018416 3.05825e-05 4.37096e-06)
(0.00023552 -0.000138887 7.58399e-06)
(0.000277846 -0.000439261 1.2314e-05)
(0.000299689 -0.00094872 1.90785e-05)
(0.000285183 -0.00177954 2.80565e-05)
(0.000218275 -0.00309188 3.79456e-05)
(8.65599e-05 -0.00508924 4.7029e-05)
(-0.000105526 -0.00798238 5.26769e-05)
(-0.000313522 -0.0118356 4.88287e-05)
(-0.000475369 -0.0161264 3.60032e-05)
(-0.000425786 -0.0187728 1.44601e-05)
(-0.00013822 -0.0141983 -1.26741e-05)
(0.000108287 0.0143393 -8.17965e-06)
(0.00029738 0.0188424 9.72496e-06)
(0.000229745 0.0160731 2.36201e-05)
(3.65077e-06 0.0117523 3.56493e-05)
(-0.000267579 0.00794395 3.8192e-05)
(-0.000497785 0.00512163 3.42302e-05)
(-0.000653258 0.00319515 2.7384e-05)
(-0.000733378 0.0019362 1.99984e-05)
(-0.000752358 0.00113497 1.35845e-05)
(-0.000729022 0.000635798 8.77443e-06)
(-0.000679861 0.000331351 5.31389e-06)